ITEM: TIMESTEP
100000
ITEM: NUMBER OF ATOMS
400
ITEM: BOX BOUNDS pp pp pp
0.0000000000000000e+00 2.8284271247461902e+01
0.0000000000000000e+00 2.8284271247461902e+01
-7.0710678118654757e-01 7.0710678118654757e-01
ITEM: ATOMS id type xs ys zs
364 1 0.0345688 0.033372 0.5
75 1 0.0495168 0.0795093 0.5
1 1 0.0249229 0.112995 0.5
346 1 0.0464674 0.148626 0.5
151 1 0.082544 0.154439 0.5
383 1 0.089616 0.0737028 0.5
204 1 0.0303961 0.192173 0.5
12 1 0.0209724 0.254501 0.5
7 1 0.0681135 0.194612 0.5
97 1 0.0593995 0.243862 0.5
177 1 0.0248749 0.309812 0.5
162 1 0.109075 0.262225 0.5
394 1 0.0758558 0.295546 0.5
33 1 0.105571 0.20077 0.5
366 1 0.0671697 0.494467 0.5
221 1 0.0668721 0.445004 0.5
236 1 0.100169 0.418238 0.5
317 1 0.0320642 0.34226 0.5
145 1 0.0371896 0.426379 0.5
263 1 0.0689787 0.396144 0.5
370 1 0.0772435 0.362849 0.5
360 1 0.0258851 0.471629 0.5
28 1 0.0761772 0.586999 0.5
119 1 0.0166451 0.64159 0.5
70 1 0.0264355 0.518315 0.5
46 1 0.0765203 0.544488 0.5
37 1 0.00753046 0.551736 0.5
321 1 0.0914676 0.621691 0.5
217 1 0.120439 0.606377 0.5
11 1 0.101805 0.502011 0.5
92 1 0.0847029 0.68343 0.5
358 1 0.0836583 0.735144 0.5
43 1 0.0125461 0.755792 0.5
272 1 0.0638778 0.801731 0.5
390 1 0.0167615 0.800638 0.5
240 1 0.0535473 0.69883 0.5
73 1 0.0248776 0.72243 0.5
54 1 0.0987917 0.767688 0.5
179 1 0.117124 0.74054 0.5
373 1 0.111525 0.703736 0.5
305 1 0.00515363 0.694929 0.5
339 1 0.0436277 0.665042 0.5
16 1 0.0689236 0.905123 0.5
320 1 0.0718257 0.944173 0.5
71 1 0.0296318 0.908696 0.5
327 1 0.00579556 0.876102 0.5
176 1 0.0166979 0.95093 0.5
369 1 0.0123812 0.985152 0.5
359 1 0.0176444 0.838725 0.5
47 1 0.199469 0.131157 0.5
109 1 0.14185 0.139715 0.5
55 1 0.162449 0.109983 0.5
230 1 0.178521 0.0448697 0.5
226 1 0.243443 0.134046 0.5
225 1 0.190786 0.00548877 0.5
323 1 0.129781 0.0866784 0.5
251 1 0.224286 0.0648656 0.5
199 1 0.24901 0.0352359 0.5
183 1 0.203025 0.163475 0.5
268 1 0.13172 0.317283 0.5
342 1 0.173127 0.181258 0.5
228 1 0.216533 0.202332 0.5
280 1 0.156434 0.242464 0.5
351 1 0.21193 0.310177 0.5
129 1 0.140394 0.27974 0.5
157 1 0.175909 0.271899 0.5
24 1 0.245206 0.246414 0.5
376 1 0.244706 0.323813 0.5
338 1 0.221954 0.395265 0.5
94 1 0.164598 0.442991 0.5
343 1 0.204717 0.446495 0.5
171 1 0.173723 0.36627 0.5
239 1 0.172766 0.41244 0.5
115 1 0.208489 0.347276 0.5
167 1 0.246894 0.367927 0.5
270 1 0.136564 0.353701 0.5
209 1 0.132355 0.472025 0.5
48 1 0.20494 0.64369 0.5
154 1 0.149874 0.647378 0.5
285 1 0.177879 0.616386 0.5
198 1 0.217154 0.527854 0.5
98 1 0.181263 0.544924 0.5
66 1 0.21505 0.607229 0.5
324 1 0.227332 0.673072 0.5
231 1 0.181638 0.781705 0.5
244 1 0.144539 0.685685 0.5
81 1 0.142405 0.770688 0.5
77 1 0.187766 0.821916 0.5
334 1 0.232271 0.814598 0.5
99 1 0.203737 0.754626 0.5
49 1 0.150184 0.810611 0.5
233 1 0.146753 0.849821 0.5
384 1 0.16473 0.937397 0.5
361 1 0.205715 0.869963 0.5
107 1 0.187514 0.91168 0.5
237 1 0.209863 0.958475 0.5
344 1 0.226667 0.917998 0.5
123 1 0.167791 0.977326 0.5
41 1 0.127065 0.931958 0.5
195 1 0.318126 0.0424101 0.5
200 1 0.323687 0.137073 0.5
181 1 0.35879 0.137389 0.5
105 1 0.35674 0.0868548 0.5
132 1 0.296145 0.0845589 0.5
10 1 0.262901 0.104729 0.5
262 1 0.369074 0.28849 0.5
297 1 0.257563 0.284089 0.5
158 1 0.314586 0.222998 0.5
292 1 0.281205 0.320422 0.5
396 1 0.324915 0.289314 0.5
110 1 0.342765 0.169971 0.5
355 1 0.346835 0.316099 0.5
17 1 0.352704 0.255233 0.5
271 1 0.255281 0.422153 0.5
22 1 0.355103 0.455186 0.5
138 1 0.31651 0.476163 0.5
168 1 0.306505 0.426886 0.5
330 1 0.278448 0.388569 0.5
300 1 0.32279 0.374572 0.5
134 1 0.364221 0.386075 0.5
35 1 0.258925 0.457859 0.5
136 1 0.374564 0.335663 0.5
267 1 0.256897 0.496579 0.5
131 1 0.339143 0.54998 0.5
185 1 0.295391 0.623048 0.5
116 1 0.348141 0.659089 0.5
26 1 0.252593 0.645674 0.5
166 1 0.336077 0.587277 0.5
60 1 0.312242 0.653595 0.5
85 1 0.329089 0.514346 0.5
400 1 0.299544 0.540912 0.5
392 1 0.373713 0.500223 0.5
341 1 0.372656 0.59282 0.5
386 1 0.259836 0.553805 0.5
254 1 0.336739 0.735025 0.5
104 1 0.353709 0.705697 0.5
38 1 0.261254 0.790717 0.5
125 1 0.318546 0.689868 0.5
243 1 0.262042 0.755847 0.5
83 1 0.315823 0.783443 0.5
173 1 0.30979 0.821275 0.5
308 1 0.253173 0.715751 0.5
165 1 0.345129 0.800995 0.5
309 1 0.324995 0.882106 0.5
211 1 0.299092 0.945063 0.5
50 1 0.287189 0.911155 0.5
331 1 0.349392 0.985641 0.5
311 1 0.357578 0.895162 0.5
241 1 0.259849 0.955581 0.5
307 1 0.260208 0.864691 0.5
213 1 0.403763 0.149752 0.5
332 1 0.425388 0.0727249 0.5
5 1 0.38127 0.00781672 0.5
51 1 0.422976 0.11879 0.5
286 1 0.387362 0.0545422 0.5
259 1 0.455713 0.0919125 0.5
150 1 0.450893 0.14078 0.5
182 1 0.420749 0.0379864 0.5
281 1 0.401039 0.311987 0.5
146 1 0.40421 0.198838 0.5
210 1 0.438815 0.287103 0.5
215 1 0.445478 0.201688 0.5
102 1 0.423444 0.23581 0.5
139 1 0.405443 0.274939 0.5
203 1 0.376295 0.178143 0.5
371 1 0.471432 0.18084 0.5
80 1 0.499641 0.22289 0.5
246 1 0.435658 0.418175 0.5
319 1 0.457145 0.387262 0.5
229 1 0.434309 0.338872 0.5
212 1 0.398789 0.442832 0.5
356 1 0.489388 0.415404 0.5
348 1 0.44419 0.452973 0.5
2 1 0.399956 0.409158 0.5
147 1 0.433988 0.484968 0.5
205 1 0.413224 0.373455 0.5
135 1 0.496084 0.450555 0.5
170 1 0.499885 0.336704 0.5
266 1 0.487622 0.554248 0.5
62 1 0.400723 0.624545 0.5
197 1 0.427827 0.529738 0.5
372 1 0.45481 0.638334 0.5
111 1 0.414089 0.567428 0.5
278 1 0.456806 0.595468 0.5
347 1 0.411662 0.662944 0.5
133 1 0.49522 0.505322 0.5
89 1 0.496408 0.597804 0.5
180 1 0.456556 0.706141 0.5
256 1 0.499217 0.744776 0.5
216 1 0.442613 0.802514 0.5
67 1 0.448982 0.768115 0.5
391 1 0.475035 0.677939 0.5
36 1 0.408185 0.787945 0.5
186 1 0.491852 0.785856 0.5
322 1 0.402578 0.705252 0.5
302 1 0.378947 0.821449 0.5
161 1 0.482188 0.842095 0.5
349 1 0.440435 0.835351 0.5
148 1 0.401016 0.907928 0.5
57 1 0.465657 0.92557 0.5
68 1 0.471128 0.996014 0.5
128 1 0.470754 0.888542 0.5
395 1 0.403311 0.980643 0.5
265 1 0.444182 0.958583 0.5
25 1 0.376137 0.936904 0.5
112 1 0.602995 0.126327 0.5
79 1 0.572408 0.0142148 0.5
276 1 0.552046 0.147554 0.5
117 1 0.578654 0.0920085 0.5
113 1 0.536735 0.106985 0.5
325 1 0.621761 0.0908431 0.5
269 1 0.612244 0.0173098 0.5
294 1 0.545352 0.039234 0.5
340 1 0.514361 0.157712 0.5
142 1 0.51165 0.0551309 0.5
153 1 0.601427 0.162483 0.5
299 1 0.501183 0.123258 0.5
326 1 0.580769 0.244541 0.5
39 1 0.503817 0.280853 0.5
74 1 0.547047 0.269886 0.5
245 1 0.616998 0.245468 0.5
103 1 0.537907 0.307262 0.5
42 1 0.543073 0.219063 0.5
21 1 0.575412 0.202297 0.5
82 1 0.561473 0.330976 0.5
242 1 0.539928 0.398129 0.5
388 1 0.595681 0.409587 0.5
223 1 0.544323 0.487002 0.5
100 1 0.55467 0.454686 0.5
247 1 0.594687 0.46331 0.5
282 1 0.604967 0.364846 0.5
398 1 0.576021 0.498256 0.5
329 1 0.599772 0.530764 0.5
273 1 0.535064 0.534979 0.5
227 1 0.505702 0.650499 0.5
13 1 0.524999 0.620419 0.5
220 1 0.56241 0.638654 0.5
313 1 0.613649 0.623309 0.5
23 1 0.601422 0.583313 0.5
124 1 0.57612 0.558496 0.5
40 1 0.586725 0.799452 0.5
354 1 0.599708 0.759307 0.5
3 1 0.521505 0.696545 0.5
235 1 0.584317 0.706002 0.5
399 1 0.541789 0.832018 0.5
156 1 0.549185 0.671307 0.5
362 1 0.619513 0.72305 0.5
86 1 0.514459 0.897701 0.5
93 1 0.580063 0.93102 0.5
283 1 0.583717 0.968443 0.5
101 1 0.514561 0.855834 0.5
249 1 0.596035 0.898631 0.5
385 1 0.620285 0.976531 0.5
290 1 0.608544 0.836935 0.5
174 1 0.741702 0.147763 0.5
255 1 0.729432 0.0185915 0.5
178 1 0.683465 0.0161673 0.5
137 1 0.685585 0.143649 0.5
76 1 0.696922 0.111443 0.5
140 1 0.684216 0.0629199 0.5
234 1 0.641164 0.135652 0.5
95 1 0.658126 0.164663 0.5
374 1 0.654069 0.211612 0.5
196 1 0.633698 0.300251 0.5
336 1 0.724628 0.193667 0.5
58 1 0.666344 0.28714 0.5
144 1 0.690289 0.181993 0.5
143 1 0.708412 0.286148 0.5
120 1 0.681866 0.320562 0.5
375 1 0.667738 0.482495 0.5
152 1 0.693671 0.419281 0.5
306 1 0.716043 0.450476 0.5
350 1 0.700998 0.37955 0.5
312 1 0.648189 0.455418 0.5
201 1 0.640328 0.341618 0.5
163 1 0.7309 0.399723 0.5
122 1 0.691502 0.595986 0.5
6 1 0.68534 0.554871 0.5
191 1 0.695193 0.633972 0.5
175 1 0.738394 0.622946 0.5
202 1 0.721021 0.530307 0.5
377 1 0.65702 0.598278 0.5
61 1 0.63605 0.538265 0.5
63 1 0.670602 0.6577 0.5
365 1 0.644841 0.803057 0.5
363 1 0.699451 0.813057 0.5
337 1 0.636451 0.765252 0.5
9 1 0.730166 0.667257 0.5
4 1 0.660973 0.691987 0.5
169 1 0.704155 0.700978 0.5
106 1 0.726242 0.756449 0.5
96 1 0.746418 0.806093 0.5
381 1 0.738563 0.90071 0.5
261 1 0.690629 0.863825 0.5
189 1 0.68553 0.922752 0.5
397 1 0.633452 0.897805 0.5
333 1 0.707359 0.980681 0.5
257 1 0.724228 0.946075 0.5
353 1 0.731518 0.860284 0.5
45 1 0.661449 0.986688 0.5
91 1 0.644139 0.83777 0.5
214 1 0.76868 0.0717622 0.5
206 1 0.772772 0.0113978 0.5
56 1 0.789947 0.0996153 0.5
379 1 0.818651 0.0689104 0.5
164 1 0.853743 0.120115 0.5
69 1 0.828996 0.0200087 0.5
126 1 0.859582 0.0671071 0.5
382 1 0.819375 0.136098 0.5
172 1 0.753678 0.108496 0.5
264 1 0.843047 0.197993 0.5
345 1 0.803357 0.265323 0.5
30 1 0.768153 0.289766 0.5
192 1 0.83062 0.227981 0.5
315 1 0.795875 0.167188 0.5
31 1 0.852091 0.437711 0.5
293 1 0.860412 0.375426 0.5
310 1 0.816495 0.453711 0.5
15 1 0.760001 0.381368 0.5
252 1 0.814173 0.405953 0.5
289 1 0.798537 0.338767 0.5
52 1 0.774869 0.427284 0.5
34 1 0.839398 0.339993 0.5
258 1 0.873403 0.471384 0.5
149 1 0.785297 0.469996 0.5
187 1 0.81064 0.49937 0.5
378 1 0.776124 0.651101 0.5
121 1 0.847711 0.519341 0.5
27 1 0.816984 0.556544 0.5
19 1 0.830159 0.613035 0.5
238 1 0.77412 0.596419 0.5
118 1 0.867384 0.647536 0.5
59 1 0.76336 0.538793 0.5
296 1 0.869881 0.731375 0.5
194 1 0.779429 0.720364 0.5
387 1 0.838046 0.720039 0.5
130 1 0.801845 0.804784 0.5
218 1 0.83666 0.765773 0.5
208 1 0.811451 0.677235 0.5
32 1 0.867064 0.827901 0.5
88 1 0.798072 0.934818 0.5
160 1 0.761854 0.970352 0.5
64 1 0.787434 0.848827 0.5
298 1 0.840204 0.952242 0.5
335 1 0.850532 0.986215 0.5
318 1 0.806877 0.896618 0.5
277 1 0.768623 0.882032 0.5
14 1 0.803068 0.981808 0.5
78 1 0.990106 0.0695861 0.5
90 1 0.995434 0.0151466 0.5
274 1 0.89854 0.0729183 0.5
380 1 0.943423 0.110138 0.5
190 1 0.919876 0.0213379 0.5
20 1 0.885175 0.0355723 0.5
253 1 0.909719 0.113194 0.5
159 1 0.968476 0.162771 0.5
193 1 0.882176 0.158056 0.5
279 1 0.904602 0.196409 0.5
219 1 0.935524 0.278869 0.5
18 1 0.982578 0.198686 0.5
287 1 0.903479 0.301766 0.5
368 1 0.925101 0.229348 0.5
367 1 0.964289 0.254571 0.5
248 1 0.98779 0.313163 0.5
222 1 0.917743 0.414059 0.5
304 1 0.959201 0.433236 0.5
275 1 0.912149 0.48489 0.5
114 1 0.923201 0.377274 0.5
295 1 0.975385 0.462043 0.5
207 1 0.967945 0.375946 0.5
8 1 0.989417 0.405032 0.5
108 1 0.910688 0.451112 0.5
357 1 0.884333 0.403002 0.5
260 1 0.920012 0.340521 0.5
288 1 0.948435 0.487237 0.5
284 1 0.881104 0.351003 0.5
141 1 0.921672 0.649973 0.5
291 1 0.959612 0.623608 0.5
232 1 0.888885 0.618839 0.5
72 1 0.902381 0.581327 0.5
44 1 0.937105 0.590894 0.5
316 1 0.98559 0.575146 0.5
314 1 0.88547 0.522001 0.5
84 1 0.942028 0.733989 0.5
155 1 0.969409 0.779167 0.5
29 1 0.921703 0.706752 0.5
389 1 0.907705 0.821804 0.5
184 1 0.975189 0.739338 0.5
127 1 0.909246 0.738783 0.5
352 1 0.936705 0.797092 0.5
87 1 0.891076 0.77082 0.5
224 1 0.964276 0.680491 0.5
328 1 0.968718 0.980798 0.5
53 1 0.95294 0.839853 0.5
303 1 0.91249 0.918052 0.5
65 1 0.963191 0.919395 0.5
393 1 0.899966 0.98867 0.5
188 1 0.93116 0.95747 0.5
250 1 0.874876 0.903536 0.5
301 1 0.903401 0.865288 0.5
