ITEM: TIMESTEP
100000
ITEM: NUMBER OF ATOMS
400
ITEM: BOX BOUNDS pp pp pp
0.0000000000000000e+00 1.9069251784911849e+01
0.0000000000000000e+00 1.9069251784911849e+01
-4.7673129462279618e-01 4.7673129462279618e-01
ITEM: ATOMS id type xs ys zs
60 1 0.0102613 0.0318701 0.5
99 1 0.0624827 0.009259 0.5
6 1 0.105894 0.0420422 0.5
5 1 0.0601848 0.0632338 0.5
9 1 0.0936234 0.143721 0.5
8 1 0.0467405 0.114363 0.5
63 1 0.101088 0.0924533 0.5
1 1 0.0424198 0.16654 0.5
327 1 0.00508999 0.0840757 0.5
26 1 0.0862211 0.293018 0.5
17 1 0.0425168 0.317611 0.5
11 1 0.0880674 0.192092 0.5
16 1 0.045451 0.217655 0.5
15 1 0.0439365 0.265496 0.5
12 1 0.0928478 0.242333 0.5
33 1 0.0851658 0.346171 0.5
19 1 0.033796 0.371829 0.5
27 1 0.0797421 0.397665 0.5
37 1 0.0266289 0.472906 0.5
32 1 0.0305336 0.423254 0.5
36 1 0.0718591 0.452303 0.5
30 1 0.115839 0.480888 0.5
88 1 0.125116 0.429238 0.5
83 1 0.0185957 0.523188 0.5
34 1 0.0718607 0.502018 0.5
379 1 0.114941 0.532215 0.5
39 1 0.0579931 0.558456 0.5
41 1 0.103833 0.642519 0.5
43 1 0.0543203 0.61509 0.5
84 1 0.11101 0.588485 0.5
85 1 0.0110873 0.586281 0.5
384 1 0.00235137 0.636096 0.5
394 1 0.0339618 0.828432 0.5
44 1 0.0979108 0.699152 0.5
97 1 0.0889065 0.803695 0.5
49 1 0.0458942 0.718325 0.5
96 1 0.0869134 0.753553 0.5
50 1 0.043591 0.780947 0.5
390 1 0.0432228 0.663386 0.5
392 1 0.00370486 0.745959 0.5
53 1 0.0837817 0.854664 0.5
398 1 0.0308239 0.88111 0.5
396 1 0.0743953 0.907695 0.5
55 1 0.0207125 0.931715 0.5
58 1 0.00449724 0.978528 0.5
397 1 0.0670086 0.958053 0.5
100 1 0.113699 0.992765 0.5
61 1 0.115561 0.934902 0.5
57 1 0.123386 0.885685 0.5
101 1 0.159512 0.0207991 0.5
64 1 0.152944 0.120731 0.5
68 1 0.152277 0.0698415 0.5
111 1 0.201193 0.0521447 0.5
70 1 0.198416 0.0994265 0.5
122 1 0.196405 0.149075 0.5
110 1 0.246394 0.0807741 0.5
117 1 0.245628 0.132639 0.5
125 1 0.225994 0.328017 0.5
67 1 0.185563 0.199065 0.5
69 1 0.135328 0.220046 0.5
73 1 0.233923 0.22349 0.5
65 1 0.140616 0.169314 0.5
78 1 0.183991 0.250321 0.5
76 1 0.230938 0.276327 0.5
82 1 0.177835 0.302548 0.5
66 1 0.138428 0.271844 0.5
21 1 0.132404 0.325016 0.5
81 1 0.211437 0.494804 0.5
71 1 0.177618 0.354831 0.5
87 1 0.169679 0.459129 0.5
77 1 0.173024 0.406526 0.5
24 1 0.231334 0.393208 0.5
79 1 0.215171 0.441128 0.5
75 1 0.130974 0.376014 0.5
134 1 0.160773 0.513387 0.5
47 1 0.204147 0.596589 0.5
80 1 0.162719 0.563715 0.5
131 1 0.210063 0.546786 0.5
46 1 0.200462 0.647166 0.5
89 1 0.154649 0.61351 0.5
45 1 0.150533 0.668992 0.5
147 1 0.240607 0.675129 0.5
51 1 0.196088 0.698988 0.5
191 1 0.237245 0.731312 0.5
91 1 0.146312 0.726417 0.5
156 1 0.132962 0.775983 0.5
104 1 0.180881 0.807461 0.5
93 1 0.188621 0.749998 0.5
95 1 0.228194 0.784219 0.5
54 1 0.130135 0.832931 0.5
98 1 0.175901 0.869868 0.5
159 1 0.209816 0.996094 0.5
153 1 0.209248 0.947223 0.5
158 1 0.164883 0.917616 0.5
62 1 0.222244 0.888312 0.5
155 1 0.157113 0.967782 0.5
94 1 0.221529 0.8399 0.5
108 1 0.343159 0.137272 0.5
72 1 0.294828 0.0585476 0.5
103 1 0.347274 0.0393599 0.5
197 1 0.345529 0.0887481 0.5
106 1 0.293655 0.114919 0.5
160 1 0.255125 0.0266682 0.5
107 1 0.308056 0.0117294 0.5
114 1 0.284074 0.163781 0.5
119 1 0.328111 0.289592 0.5
74 1 0.331082 0.238855 0.5
123 1 0.27976 0.309203 0.5
113 1 0.279539 0.247665 0.5
112 1 0.330208 0.186207 0.5
118 1 0.376989 0.26995 0.5
116 1 0.368188 0.321232 0.5
128 1 0.272406 0.361391 0.5
235 1 0.356883 0.478681 0.5
130 1 0.312368 0.394271 0.5
175 1 0.360929 0.374461 0.5
126 1 0.269711 0.424155 0.5
132 1 0.316348 0.447754 0.5
120 1 0.365234 0.425469 0.5
127 1 0.259836 0.47252 0.5
179 1 0.319403 0.341729 0.5
137 1 0.309205 0.495237 0.5
129 1 0.35381 0.529263 0.5
90 1 0.304186 0.550665 0.5
135 1 0.350843 0.586953 0.5
42 1 0.302102 0.605069 0.5
141 1 0.34262 0.637919 0.5
145 1 0.296266 0.659807 0.5
140 1 0.256926 0.523589 0.5
86 1 0.251906 0.576504 0.5
48 1 0.255832 0.628037 0.5
144 1 0.28473 0.713814 0.5
186 1 0.343546 0.689239 0.5
193 1 0.332075 0.73801 0.5
151 1 0.277586 0.815722 0.5
92 1 0.278949 0.764528 0.5
188 1 0.325541 0.789427 0.5
148 1 0.368793 0.825923 0.5
143 1 0.269781 0.865676 0.5
194 1 0.317763 0.843555 0.5
157 1 0.347987 0.977692 0.5
152 1 0.312394 0.897933 0.5
154 1 0.263461 0.92343 0.5
150 1 0.306018 0.952047 0.5
149 1 0.357209 0.927356 0.5
249 1 0.361664 0.876037 0.5
105 1 0.254443 0.975595 0.5
199 1 0.393839 0.0137405 0.5
163 1 0.443366 0.043026 0.5
169 1 0.430235 0.145302 0.5
102 1 0.393072 0.0627843 0.5
204 1 0.488778 0.01437 0.5
167 1 0.483954 0.12284 0.5
165 1 0.438531 0.0953729 0.5
109 1 0.390862 0.11425 0.5
206 1 0.487114 0.0674309 0.5
172 1 0.429058 0.196697 0.5
210 1 0.479917 0.175791 0.5
174 1 0.424262 0.24791 0.5
220 1 0.470321 0.227132 0.5
219 1 0.468533 0.279249 0.5
171 1 0.418787 0.298757 0.5
115 1 0.379246 0.218439 0.5
222 1 0.471108 0.32962 0.5
168 1 0.385251 0.168282 0.5
173 1 0.408483 0.349464 0.5
121 1 0.411953 0.396965 0.5
176 1 0.46364 0.384797 0.5
177 1 0.462887 0.438303 0.5
124 1 0.4087 0.45099 0.5
133 1 0.452681 0.48737 0.5
185 1 0.398766 0.506547 0.5
139 1 0.44371 0.540231 0.5
182 1 0.439126 0.646647 0.5
136 1 0.396094 0.557486 0.5
180 1 0.491618 0.570314 0.5
231 1 0.395456 0.612644 0.5
240 1 0.44371 0.593864 0.5
295 1 0.486169 0.62474 0.5
183 1 0.49146 0.520605 0.5
138 1 0.435906 0.702445 0.5
246 1 0.480304 0.675198 0.5
187 1 0.478529 0.730515 0.5
146 1 0.422963 0.753646 0.5
250 1 0.47053 0.78409 0.5
195 1 0.42049 0.802823 0.5
184 1 0.387105 0.720059 0.5
161 1 0.458354 0.835887 0.5
142 1 0.389962 0.666935 0.5
189 1 0.376256 0.770345 0.5
255 1 0.410912 0.853997 0.5
198 1 0.405496 0.913607 0.5
258 1 0.450246 0.890035 0.5
164 1 0.449067 0.940212 0.5
162 1 0.397594 0.965342 0.5
256 1 0.443196 0.993392 0.5
201 1 0.496559 0.963164 0.5
315 1 0.588251 0.0254249 0.5
203 1 0.539239 0.0477204 0.5
208 1 0.581704 0.0797014 0.5
207 1 0.534815 0.103409 0.5
166 1 0.527078 0.153973 0.5
212 1 0.579782 0.130907 0.5
211 1 0.620339 0.1625 0.5
215 1 0.624883 0.107324 0.5
170 1 0.519525 0.205265 0.5
213 1 0.570638 0.181681 0.5
218 1 0.561951 0.228686 0.5
223 1 0.520342 0.311631 0.5
216 1 0.514608 0.254962 0.5
221 1 0.563385 0.283269 0.5
285 1 0.604372 0.319476 0.5
217 1 0.611543 0.268248 0.5
214 1 0.613152 0.216692 0.5
294 1 0.595469 0.467822 0.5
333 1 0.602138 0.417279 0.5
288 1 0.610678 0.367671 0.5
225 1 0.506828 0.413527 0.5
226 1 0.553344 0.392798 0.5
233 1 0.550216 0.440209 0.5
229 1 0.510506 0.363732 0.5
227 1 0.561702 0.343784 0.5
181 1 0.50523 0.466581 0.5
228 1 0.551867 0.494442 0.5
178 1 0.592649 0.522883 0.5
237 1 0.545035 0.545501 0.5
238 1 0.592597 0.575081 0.5
297 1 0.54026 0.600816 0.5
308 1 0.580459 0.630626 0.5
234 1 0.531957 0.651608 0.5
307 1 0.623629 0.655354 0.5
190 1 0.52775 0.707423 0.5
243 1 0.576579 0.684668 0.5
257 1 0.528192 0.761121 0.5
241 1 0.570103 0.732952 0.5
251 1 0.610342 0.81876 0.5
248 1 0.568684 0.791608 0.5
245 1 0.615039 0.760394 0.5
244 1 0.515633 0.810634 0.5
196 1 0.508371 0.859575 0.5
205 1 0.535977 0.996119 0.5
253 1 0.604467 0.872373 0.5
252 1 0.587725 0.975111 0.5
247 1 0.557206 0.894898 0.5
260 1 0.546319 0.945713 0.5
254 1 0.597835 0.926629 0.5
202 1 0.503374 0.9121 0.5
192 1 0.559603 0.841525 0.5
209 1 0.676605 0.0350239 0.5
264 1 0.633051 0.00395184 0.5
261 1 0.727151 0.0142487 0.5
271 1 0.731825 0.0638059 0.5
274 1 0.666204 0.13902 0.5
270 1 0.6716 0.0865545 0.5
269 1 0.716744 0.114604 0.5
318 1 0.628454 0.0543967 0.5
279 1 0.665568 0.190702 0.5
337 1 0.703482 0.323998 0.5
224 1 0.663244 0.241563 0.5
276 1 0.712342 0.220276 0.5
283 1 0.70633 0.270544 0.5
230 1 0.654288 0.293453 0.5
367 1 0.710873 0.167739 0.5
286 1 0.657605 0.344306 0.5
236 1 0.694439 0.484839 0.5
232 1 0.651554 0.396777 0.5
290 1 0.697326 0.373825 0.5
336 1 0.741314 0.458843 0.5
292 1 0.648925 0.449392 0.5
289 1 0.693058 0.428748 0.5
284 1 0.737512 0.408336 0.5
280 1 0.744124 0.353431 0.5
343 1 0.63598 0.49855 0.5
344 1 0.730141 0.617995 0.5
287 1 0.688056 0.53385 0.5
291 1 0.741225 0.508852 0.5
299 1 0.681044 0.584816 0.5
341 1 0.73045 0.564678 0.5
298 1 0.683878 0.637636 0.5
293 1 0.641049 0.552005 0.5
296 1 0.633671 0.60311 0.5
309 1 0.67358 0.690146 0.5
239 1 0.666528 0.7389 0.5
300 1 0.718075 0.720903 0.5
200 1 0.660463 0.789943 0.5
242 1 0.707259 0.772799 0.5
310 1 0.698421 0.823517 0.5
314 1 0.745813 0.806242 0.5
306 1 0.624179 0.707422 0.5
302 1 0.722662 0.668876 0.5
259 1 0.653383 0.847246 0.5
353 1 0.69704 0.876933 0.5
263 1 0.684375 0.986074 0.5
311 1 0.650979 0.900832 0.5
313 1 0.734586 0.962425 0.5
319 1 0.647504 0.950408 0.5
316 1 0.691394 0.931662 0.5
312 1 0.741733 0.90764 0.5
303 1 0.742412 0.857772 0.5
262 1 0.775722 0.0424203 0.5
266 1 0.820029 0.018305 0.5
265 1 0.818656 0.0730569 0.5
273 1 0.774731 0.0962332 0.5
370 1 0.812755 0.127418 0.5
277 1 0.856712 0.153042 0.5
325 1 0.763148 0.14433 0.5
328 1 0.859041 0.100662 0.5
267 1 0.861639 0.0484248 0.5
278 1 0.760996 0.193987 0.5
371 1 0.847187 0.263342 0.5
4 1 0.852178 0.204458 0.5
330 1 0.846414 0.314309 0.5
326 1 0.806505 0.22901 0.5
329 1 0.79819 0.281338 0.5
365 1 0.810293 0.177898 0.5
282 1 0.759044 0.249999 0.5
281 1 0.75054 0.300588 0.5
272 1 0.794126 0.333836 0.5
275 1 0.833443 0.366807 0.5
331 1 0.78535 0.386169 0.5
334 1 0.835549 0.415147 0.5
335 1 0.782369 0.433404 0.5
375 1 0.837292 0.465013 0.5
338 1 0.788229 0.484617 0.5
339 1 0.790185 0.535674 0.5
377 1 0.837572 0.516522 0.5
383 1 0.770178 0.645665 0.5
382 1 0.83 0.566982 0.5
386 1 0.775846 0.59067 0.5
347 1 0.819778 0.621917 0.5
385 1 0.864125 0.652035 0.5
342 1 0.868837 0.597045 0.5
345 1 0.76602 0.698148 0.5
354 1 0.812657 0.674961 0.5
346 1 0.862632 0.703126 0.5
352 1 0.850487 0.806111 0.5
349 1 0.811529 0.726578 0.5
351 1 0.806615 0.777738 0.5
350 1 0.857186 0.755833 0.5
301 1 0.763673 0.749623 0.5
304 1 0.792007 0.825365 0.5
357 1 0.839552 0.855937 0.5
355 1 0.78827 0.875882 0.5
320 1 0.830332 0.910022 0.5
317 1 0.783082 0.934208 0.5
324 1 0.778959 0.991731 0.5
364 1 0.822837 0.966095 0.5
268 1 0.867138 0.994031 0.5
323 1 0.868917 0.942357 0.5
400 1 0.909289 0.0226193 0.5
362 1 0.903177 0.128073 0.5
23 1 0.945426 0.156655 0.5
322 1 0.904738 0.0775828 0.5
56 1 0.960091 0.0528462 0.5
2 1 0.959066 0.108459 0.5
3 1 0.958176 0.00163668 0.5
368 1 0.998456 0.141079 0.5
7 1 0.901456 0.179065 0.5
369 1 0.895618 0.236895 0.5
10 1 0.941377 0.209422 0.5
29 1 0.94334 0.312328 0.5
372 1 0.892724 0.288384 0.5
25 1 0.941377 0.260637 0.5
14 1 0.991847 0.295963 0.5
13 1 0.992459 0.240825 0.5
18 1 0.997377 0.18983 0.5
376 1 0.934788 0.463558 0.5
378 1 0.94254 0.363211 0.5
35 1 0.992444 0.345947 0.5
332 1 0.888145 0.391524 0.5
22 1 0.983975 0.396711 0.5
374 1 0.936948 0.414402 0.5
28 1 0.98032 0.446099 0.5
373 1 0.885686 0.441631 0.5
20 1 0.898946 0.339357 0.5
380 1 0.973942 0.496992 0.5
381 1 0.879651 0.491717 0.5
38 1 0.926445 0.516788 0.5
388 1 0.917475 0.575388 0.5
40 1 0.972125 0.546887 0.5
387 1 0.959548 0.604705 0.5
31 1 0.910277 0.626037 0.5
360 1 0.957273 0.655916 0.5
340 1 0.878744 0.543005 0.5
348 1 0.909468 0.678777 0.5
358 1 0.905275 0.736228 0.5
389 1 0.951204 0.711116 0.5
305 1 0.902107 0.785503 0.5
52 1 0.953803 0.759678 0.5
359 1 0.942424 0.816009 0.5
395 1 0.99495 0.796465 0.5
391 1 0.998279 0.688347 0.5
366 1 0.914905 0.970695 0.5
321 1 0.93605 0.869317 0.5
356 1 0.878174 0.886116 0.5
361 1 0.983442 0.847111 0.5
399 1 0.979552 0.897743 0.5
59 1 0.965446 0.94789 0.5
363 1 0.920824 0.920903 0.5
393 1 0.897298 0.839844 0.5
