ITEM: TIMESTEP
100000
ITEM: NUMBER OF ATOMS
2048
ITEM: BOX BOUNDS pp pp pp
0.0000000000000000e+00 1.3153131063095840e+01
0.0000000000000000e+00 1.3153131063095840e+01
0.0000000000000000e+00 1.3153131063095840e+01
ITEM: ATOMS id type xs ys zs
1479 1 0.220367 0.225999 0.234919
1165 1 0.274574 0.12698 0.208351
1745 1 0.182551 0.02619 0.0156371
1307 1 0.0688344 0.239773 0.00465258
1630 1 0.269212 0.187338 0.158141
1596 1 0.204082 0.168129 0.191734
1193 1 0.0399756 0.172415 0.20729
1272 1 0.234173 0.0166331 0.138624
1269 1 0.0570208 0.0161866 0.207996
913 1 0.165605 0.0163472 0.195352
1735 1 0.128407 0.130347 0.0365573
736 1 0.0939318 0.140511 0.109449
282 1 0.145991 0.224593 0.232527
1810 1 0.189747 0.133492 0.101547
1454 1 0.147384 0.177414 0.142527
44 1 0.129665 0.0793315 0.171967
2014 1 0.0173477 0.0455801 0.121587
1610 1 0.0293729 0.240376 0.093719
486 1 0.299368 0.155481 0.0933735
1328 1 0.254012 0.0935607 0.108696
1106 1 0.141082 0.244824 0.0200349
1654 1 0.209161 0.205146 0.103714
1964 1 0.0568599 0.106137 0.16215
716 1 0.25544 0.205884 0.0422895
1319 1 0.10974 0.0708615 0.0794244
1275 1 0.299614 0.207469 0.234014
416 1 0.297185 0.0279103 0.186002
1847 1 0.107142 0.0205647 0.0126461
1722 1 0.192335 0.243821 0.167115
701 1 0.332164 0.113544 0.141099
1504 1 0.273389 0.0383697 0.0521602
384 1 0.0345237 0.170838 0.0339879
303 1 0.216867 0.0850482 0.185311
1045 1 0.0584739 0.240632 0.238762
795 1 0.00773415 0.143189 0.109769
320 1 0.323008 0.0874528 0.0754515
1071 1 0.185617 0.0537091 0.0812891
1229 1 0.116787 0.206104 0.0800195
670 1 0.040805 0.0978728 0.0667169
1047 1 0.229464 0.0904893 0.0367652
432 1 0.194161 0.168283 0.0338837
594 1 0.0960702 0.121882 0.222667
1821 1 0.329616 0.0810882 0.00307737
940 1 0.234678 0.00117057 0.233801
108 1 0.272185 0.226265 0.389883
104 1 0.187645 0.166749 0.405255
1195 1 0.095132 0.0683823 0.276832
1525 1 0.226082 0.0362674 0.316597
1632 1 0.138574 0.107293 0.442546
346 1 0.293369 0.0585431 0.339673
1919 1 0.0428541 0.242365 0.494577
1438 1 0.268289 0.0725621 0.457989
1741 1 0.252534 0.139018 0.445125
1660 1 0.121985 0.0407361 0.35382
721 1 0.174508 0.251721 0.498889
1643 1 0.085621 0.186227 0.429289
1281 1 0.036503 0.228707 0.326497
1860 1 0.251053 0.00817913 0.379632
10 1 0.0929927 0.130929 0.31228
1688 1 0.31397 0.151737 0.295332
902 1 0.173323 0.215196 0.300156
212 1 0.185807 0.100903 0.308342
1566 1 0.140729 0.122018 0.366105
1382 1 0.237916 0.226324 0.457182
1794 1 0.00218211 0.0318259 0.380618
8 1 0.193313 0.163027 0.49123
358 1 0.264529 0.0711867 0.256795
1537 1 0.191522 0.0350348 0.461402
1428 1 0.229248 0.0932817 0.375712
800 1 0.30203 0.0140628 0.43276
1851 1 0.115603 0.0396504 0.489708
420 1 0.0638216 0.124319 0.392406
921 1 0.235473 0.144982 0.274486
1803 1 0.0285068 0.0549233 0.46286
530 1 0.24505 0.166821 0.354374
1323 1 0.114247 0.233099 0.346834
2038 1 0.318821 0.0173981 0.260407
1276 1 0.158181 0.146303 0.256347
1322 1 0.320293 0.153991 0.388499
1929 1 0.0886645 0.196503 0.283812
1546 1 0.0876338 0.0590836 0.418222
755 1 0.0436888 0.0104032 0.298596
83 1 0.0227801 0.0889659 0.335552
2032 1 0.312222 0.126637 0.494717
1139 1 0.162185 0.0253896 0.273376
746 1 0.315282 0.199073 0.454777
932 1 0.298596 0.2337 0.300716
870 1 0.025112 0.1205 0.258634
1902 1 0.23639 0.0538696 0.727569
308 1 0.0383283 0.078893 0.620719
679 1 0.179213 0.00457455 0.71954
1033 1 0.151128 0.1717 0.660942
838 1 0.193925 0.194202 0.567168
1212 1 0.00998219 0.147158 0.507881
1397 1 0.0668224 0.0679078 0.547339
180 1 0.229332 0.122998 0.560837
1800 1 0.194976 0.0656046 0.6711
98 1 0.150101 0.0321988 0.555951
680 1 0.112864 0.0285054 0.698491
1536 1 0.0850441 0.222253 0.665082
373 1 0.249091 0.214537 0.725915
1877 1 0.251339 0.13719 0.733515
1177 1 0.275769 0.181139 0.610694
1214 1 0.00555545 0.151209 0.619078
1351 1 0.090412 0.145477 0.611111
1770 1 0.205 0.0629326 0.596468
1727 1 0.274522 0.0475614 0.652236
452 1 0.243667 0.121845 0.646138
1913 1 0.0653372 0.010055 0.595755
1147 1 0.227336 0.0526661 0.527757
788 1 0.315712 0.10599 0.609955
948 1 0.179392 0.126286 0.733961
129 1 0.0503746 0.202817 0.564751
1715 1 0.162808 0.127131 0.592481
1375 1 0.212956 0.217143 0.641421
1700 1 0.125287 0.206928 0.577489
1740 1 0.285842 0.19451 0.537873
454 1 0.169534 0.0958555 0.513101
1367 1 0.113494 0.0986948 0.675858
351 1 0.307723 0.0995375 0.684218
669 1 0.0492731 0.157978 0.677258
1400 1 0.0425297 0.0821 0.725179
1477 1 0.104791 0.219195 0.734592
1293 1 0.30162 0.172432 0.682516
451 1 0.0132161 0.00780067 0.646315
290 1 0.0963746 0.129447 0.524657
960 1 0.313411 0.0284104 0.499271
1161 1 0.328686 0.226305 0.638868
1470 1 0.125318 0.192908 0.502387
1492 1 0.222773 0.0955663 0.862613
1746 1 0.185608 0.197935 0.762438
745 1 0.250077 0.155699 0.983725
1005 1 0.046647 0.059809 1.00061
826 1 0.1878 0.0724038 0.79722
1063 1 0.190931 0.142306 0.919195
15 1 0.276905 0.0843288 0.788511
1572 1 0.148272 0.190121 0.95304
458 1 0.13124 0.0573594 0.922875
1624 1 0.289533 0.0992862 0.924871
1239 1 0.0584199 0.195249 0.832429
23 1 0.270563 0.241489 0.900485
1524 1 0.176095 0.103878 0.985104
27 1 0.214901 0.142692 0.80566
1493 1 0.00654812 0.00705246 0.884786
637 1 0.005955 0.243613 0.938005
899 1 0.127984 0.166896 0.810079
1501 1 0.294012 0.226908 0.970694
791 1 0.0593926 0.0876405 0.91439
1205 1 0.150121 0.115964 0.859558
387 1 0.249644 0.201054 0.838172
583 1 0.0870644 0.23432 0.93099
579 1 0.0735071 0.0342501 0.858704
42 1 0.212718 0.232392 0.952581
222 1 0.168659 0.211017 0.866031
1447 1 0.0657401 0.149343 0.75154
1705 1 0.202695 0.0558596 0.927362
1676 1 0.0993223 0.172279 0.887664
114 1 0.14474 0.0189649 0.852146
1873 1 0.0955696 0.138202 0.969695
1404 1 0.120372 0.244134 0.809815
88 1 0.057509 0.0640091 0.795514
704 1 0.305098 0.0178491 0.843909
1216 1 0.0238781 0.127631 0.827848
687 1 0.324065 0.176441 0.902277
1359 1 0.253602 0.0485949 0.976336
75 1 0.302617 0.178413 0.767112
139 1 0.278446 0.134389 0.842215
402 1 0.212163 0.000420536 0.877657
2023 1 0.0356317 0.15793 0.925845
82 1 0.00226478 0.247323 0.809152
581 1 0.127642 0.0701091 0.759297
711 1 0.129903 0.25786 0.138646
667 1 0.0523257 0.476046 0.125232
1961 1 0.20242 0.460492 0.198979
1300 1 0.048998 0.313433 0.118038
1614 1 0.0947952 0.289502 0.193374
616 1 0.298558 0.300769 0.0657798
184 1 0.121813 0.392312 0.23572
339 1 0.161985 0.364367 0.026542
475 1 0.102303 0.432567 0.164478
1020 1 0.100958 0.306557 0.0360555
1833 1 0.20214 0.403014 0.0925796
430 1 0.165805 0.392168 0.173723
241 1 0.319687 0.303051 0.200565
487 1 0.186743 0.47187 0.0591058
1250 1 0.0752021 0.471659 0.0444247
2041 1 0.0373239 0.432491 0.195897
1516 1 0.299262 0.453482 0.212703
1084 1 0.285325 0.418127 0.134279
686 1 0.227385 0.482225 0.133119
971 1 0.088556 0.359224 0.165298
169 1 0.198313 0.434227 -0.000616103
352 1 0.201493 0.297509 0.0346079
983 1 0.250842 0.366286 0.198621
378 1 0.125259 0.442909 0.0931759
885 1 0.33026 0.342095 0.128137
151 1 0.00282707 0.291598 0.0178378
238 1 0.273965 0.429692 0.0664277
208 1 0.163559 0.335991 0.115042
1980 1 0.127611 0.424076 0.00936642
41 1 0.0218922 0.272422 0.177671
781 1 0.24973 0.280072 0.19376
2001 1 0.253169 0.341325 0.129835
1036 1 0.247231 0.351344 0.0555361
1588 1 0.0719009 0.392689 0.0912206
354 1 0.282234 0.25044 0.133498
336 1 0.046196 0.362181 0.0302824
1480 1 0.163915 0.324679 0.201364
620 1 0.00911305 0.429852 0.0615349
436 1 0.0468089 0.340374 0.237112
349 1 0.0857104 0.500661 0.18875
845 1 0.299137 0.472217 0.00180962
146 1 0.320931 0.497103 0.158306
514 1 0.324274 0.375337 0.0567883
1019 1 0.00202113 0.364873 0.0943582
1366 1 0.145416 0.40524 0.43757
1231 1 0.275732 0.453299 0.47209
1398 1 0.171466 0.456374 0.390705
1750 1 0.194338 0.255198 0.39386
808 1 0.33004 0.483892 0.373912
1414 1 0.0678462 0.378412 0.301853
66 1 0.255756 0.315685 0.264443
371 1 0.0960446 0.472427 0.407479
255 1 0.127883 0.303787 0.357466
936 1 0.278457 0.385238 0.283006
529 1 0.113732 0.424214 0.348463
1753 1 0.169591 0.368905 0.371101
1652 1 0.112401 0.473636 0.480637
1637 1 0.0804402 0.304187 0.472623
1523 1 0.187054 0.457923 0.47309
1238 1 0.239913 0.346161 0.32707
542 1 0.238243 0.365876 0.401025
563 1 0.0187436 0.473918 0.446153
1121 1 0.254048 0.373856 0.48042
1889 1 0.243697 0.449301 0.395705
296 1 0.0812272 0.343967 0.410439
1184 1 0.3133 0.412007 0.384694
310 1 0.220318 0.273571 0.326359
370 1 0.0418909 0.480735 0.317156
1268 1 0.325317 0.445928 0.309975
1325 1 0.15429 0.362472 0.297429
1575 1 0.0483057 0.265828 0.421873
1251 1 0.134861 0.273511 0.431311
533 1 0.246327 0.462422 0.315944
1782 1 0.253883 0.299939 0.442057
142 1 0.289957 0.291467 0.348882
819 1 0.173018 0.340542 0.451789
483 1 0.314302 0.343726 0.430441
1701 1 0.173626 0.49258 0.277965
1681 1 0.0695849 0.407561 0.454385
1182 1 0.0515268 0.300932 0.356603
400 1 0.0292221 0.428847 0.374126
785 1 0.179598 0.287946 0.270751
1602 1 0.0204918 0.288099 0.28399
377 1 0.0797434 0.455007 0.257672
482 1 0.00788349 0.422222 0.261324
1840 1 0.211991 0.411611 0.255465
1607 1 0.0360495 0.449548 0.517111
1690 1 0.12715 0.417813 0.644477
1914 1 0.0840195 0.288973 0.710724
550 1 0.13769 0.333718 0.51614
1257 1 0.289094 0.298748 0.59019
1505 1 0.0534226 0.352753 0.529526
1973 1 0.0213317 0.284037 0.659121
1474 1 0.186336 0.413984 0.552467
1992 1 0.324958 0.249379 0.71012
1789 1 0.00205366 0.473061 0.703673
497 1 0.208053 0.296401 0.59871
520 1 0.0670634 0.487788 0.635499
461 1 0.113758 0.478017 0.557043
1266 1 0.325049 0.4273 0.625253
1499 1 0.0924924 0.35244 0.665186
449 1 0.177656 0.361975 0.620769
1815 1 0.239855 0.470373 0.530064
847 1 0.30481 0.33072 0.699841
1093 1 0.308596 0.430951 0.535868
1634 1 0.107185 0.264226 0.534449
56 1 0.256467 0.430932 0.602274
273 1 0.054736 0.416952 0.627742
375 1 0.182859 0.471982 0.718778
794 1 0.206396 0.345634 0.703055
1468 1 0.0295702 0.281263 0.565597
1864 1 0.209598 0.318023 0.516963
1119 1 0.10797 0.345224 0.584409
87 1 0.0174078 0.337564 0.710861
145 1 0.260939 0.499096 0.652377
1109 1 0.105516 0.406186 0.51865
1791 1 0.111025 0.272649 0.610148
1128 1 0.162043 0.271585 0.744008
1155 1 0.151676 0.28398 0.6713
1402 1 0.2058 0.432918 0.660231
582 1 0.0732112 0.48186 0.722919
198 1 0.264415 0.383779 0.729731
258 1 0.272139 0.362482 0.635074
1462 1 0.0546668 0.404185 0.707358
778 1 0.270592 0.265509 0.657861
217 1 0.252047 0.373031 0.55451
1042 1 0.258139 0.28955 0.736088
999 1 0.00205842 0.353315 0.63402
924 1 0.285479 0.304562 0.509389
118 1 0.139797 0.439189 0.924307
1656 1 0.118661 0.428338 0.752398
214 1 0.299009 0.418526 0.796503
441 1 0.0135212 0.416272 0.909221
2026 1 0.175509 0.484484 0.794042
1783 1 0.00155496 0.470944 0.863719
1191 1 0.0553211 0.297884 0.958784
1549 1 0.253912 0.388499 0.886369
1742 1 0.166019 0.409437 0.862436
168 1 0.252518 0.483455 0.763687
1621 1 0.0218873 0.328688 0.799225
1965 1 0.0792736 0.470406 0.967692
39 1 0.320985 0.447631 0.876454
1819 1 0.252024 0.463523 0.845671
1393 1 0.203713 0.274185 0.836898
206 1 0.106069 0.377068 0.90904
128 1 0.151859 0.302011 0.96537
383 1 0.253622 0.312156 0.895055
688 1 0.324365 0.389518 0.944928
1256 1 0.215 0.403808 0.782265
962 1 0.168405 0.370921 0.944205
723 1 0.069822 0.383542 0.823894
110 1 0.33379 0.316708 0.791008
684 1 0.0907064 0.307013 0.830718
1107 1 0.319306 0.503043 0.930173
682 1 0.0999537 0.357184 0.981764
1930 1 0.230128 0.333905 0.796862
1358 1 0.104584 0.476303 0.820885
605 1 0.0427448 0.344847 0.895248
69 1 0.274872 0.268453 0.810554
882 1 0.0791075 0.449262 0.883006
442 1 0.0771773 0.351677 0.750967
1949 1 0.209684 0.479778 0.903376
1254 1 0.175348 0.31298 0.895713
1569 1 -0.000383972 0.350302 0.966672
1691 1 0.269819 0.441464 0.932383
1763 1 0.239035 0.369136 0.970247
1209 1 0.0324337 0.485604 0.787701
905 1 0.270836 0.297065 0.981973
1181 1 0.148618 0.340572 0.799263
850 1 0.0301181 0.420095 0.987388
61 1 0.0450965 0.259026 0.874375
121 1 0.170166 0.494301 0.966539
997 1 0.139253 0.660442 0.231416
490 1 0.0515571 0.559344 0.222613
1944 1 0.0422089 0.647133 0.219722
1098 1 0.186561 0.529976 0.181412
783 1 0.291473 0.613394 0.190716
813 1 0.282236 0.573275 0.0759519
480 1 0.114883 0.597082 0.0507815
796 1 0.237961 0.578284 0.229751
807 1 0.262799 0.708896 -0.00185433
612 1 0.0970227 0.723996 0.107963
735 1 0.1264 0.667174 0.0362255
1724 1 0.0694079 0.557118 0.108079
516 1 0.0187539 0.619887 0.0920753
1487 1 0.185216 0.618535 0.179734
1151 1 0.212371 0.692131 0.0982306
1937 1 0.213607 0.550147 0.0800388
1313 1 0.185009 0.627764 0.085418
1009 1 0.0171016 0.524322 0.164579
1138 1 0.286014 0.501365 0.0900558
269 1 0.263109 0.624742 0.126453
852 1 0.0490699 0.688174 0.153363
1579 1 0.318114 0.709844 0.120746
1028 1 0.255894 0.67587 0.206248
1849 1 0.193981 0.568128 0.0115295
427 1 0.282195 0.666371 0.0682679
191 1 0.135886 0.508046 0.129975
1623 1 0.307963 0.561351 0.242765
556 1 0.137873 0.527535 0.0376766
76 1 0.196088 0.716435 0.19023
1734 1 0.0501202 0.558523 0.027672
464 1 0.115801 0.577009 0.172149
1515 1 0.119522 0.648724 0.116514
334 1 0.0504777 0.697741 0.0407173
275 1 0.179375 0.728192 0.0336918
1176 1 0.211313 0.656946 0.0181941
332 1 0.280932 0.630662 0.00419406
59 1 0.0969831 0.718564 0.212708
1981 1 0.256655 0.736419 0.155353
1557 1 0.23994 0.510181 0.0246829
506 1 0.16769 0.564529 0.240672
911 1 0.0653568 0.681299 0.320603
1284 1 0.247361 0.512032 0.25732
2030 1 0.044003 0.731858 0.266473
298 1 0.300542 0.686321 0.323253
1429 1 0.109123 0.577031 0.423701
1779 1 0.0909284 0.652171 0.402485
53 1 0.0150152 0.667328 0.448501
1896 1 0.0935047 0.725345 0.403427
498 1 0.277846 0.623891 0.274717
1556 1 0.206573 0.659102 0.281722
12 1 0.214431 0.53458 0.363175
984 1 0.303396 0.744406 0.455512
445 1 0.13198 0.538011 0.358872
240 1 0.139925 0.679572 0.33341
1096 1 0.30219 0.642912 0.400162
219 1 0.238912 0.692892 0.430316
1712 1 0.125661 0.548471 0.488607
607 1 0.0223539 0.545126 0.4868
1471 1 0.22993 0.608766 0.397685
1698 1 0.286757 0.591824 0.483525
1296 1 0.00572957 0.73241 0.478328
1898 1 0.0512358 0.530395 0.37318
901 1 0.0843057 0.623847 0.280591
367 1 0.23113 0.748172 0.32098
78 1 0.164991 0.661542 0.435986
1812 1 0.167831 0.52054 0.436257
1310 1 0.150571 0.614528 0.375091
1044 1 0.109504 0.526062 0.283525
1665 1 0.12167 0.730091 0.285347
324 1 0.0252583 0.593737 0.398904
665 1 0.21842 0.678709 0.359824
178 1 0.0930432 0.638528 0.475598
871 1 0.219747 0.578404 0.303254
140 1 0.0295159 0.54964 0.289202
766 1 0.294667 0.580271 0.355867
448 1 0.087171 0.59313 0.344446
1818 1 0.108347 0.7363 0.478044
350 1 0.265261 0.536619 0.423971
1962 1 0.178203 0.592598 0.449072
326 1 0.15268 0.608157 0.301677
1401 1 0.293313 0.517818 0.319487
942 1 0.0113272 0.630373 0.331682
1099 1 0.015652 0.691154 0.374163
1519 1 0.303227 0.71834 0.247325
162 1 0.171463 0.747666 0.434612
369 1 0.220298 0.630686 0.489474
531 1 0.330203 0.514593 0.492887
395 1 0.0841126 0.655394 0.7321
357 1 0.32388 0.718396 0.561572
278 1 0.234382 0.640407 0.658409
415 1 0.0889727 0.632008 0.659658
164 1 0.0528086 0.514961 0.553467
272 1 0.193119 0.54756 0.65537
1869 1 0.242196 0.723969 0.507014
1600 1 0.302057 0.588959 0.69279
712 1 0.0630502 0.571296 0.713271
739 1 0.140773 0.726289 0.678128
629 1 0.205291 0.656078 0.560138
1613 1 0.182488 0.5212 0.527417
1410 1 0.298792 0.651526 0.750759
1786 1 0.31108 0.555016 0.617826
1994 1 0.0557366 0.727384 0.535768
1002 1 0.0352332 0.558869 0.64216
77 1 0.263033 0.546305 0.53481
21 1 0.133815 0.511895 0.61683
1801 1 0.063812 0.747033 0.737542
933 1 0.100935 0.591199 0.592115
720 1 0.313514 0.628706 0.630187
382 1 0.157231 0.653372 0.664748
2027 1 0.0262769 0.658931 0.606299
365 1 0.250767 0.604364 0.589425
433 1 0.0494563 0.655386 0.535859
138 1 0.213828 0.509837 0.593426
1208 1 0.306195 0.636018 0.541472
437 1 0.122506 0.684743 0.584523
2008 1 0.130037 0.527574 0.693368
1570 1 0.17477 0.603237 0.606184
1223 1 0.184213 0.731561 0.588708
1684 1 0.157703 0.606299 0.525343
1460 1 0.0331581 0.705105 0.686319
1710 1 0.197825 0.620793 0.71379
543 1 0.0693581 0.580967 0.525048
834 1 0.131084 0.601387 0.718494
289 1 0.0171393 0.731585 0.61642
330 1 0.279657 0.726154 0.621389
49 1 0.21885 0.698037 0.710758
1475 1 0.30328 0.513948 0.70831
1682 1 0.156463 0.685427 0.51197
553 1 0.146288 0.653935 0.872098
1298 1 0.14492 0.723001 0.917355
797 1 0.13692 0.596375 0.803476
211 1 0.0146411 0.62824 0.756367
573 1 0.0888938 0.5399 0.779755
598 1 0.244738 0.523935 0.948305
1038 1 0.148132 0.534401 0.864998
1452 1 0.00981433 0.60619 0.987095
728 1 0.0170046 0.575129 0.814902
610 1 0.2631 0.577302 0.755161
2043 1 0.00572978 0.524969 0.952759
2021 1 0.215847 0.643004 0.894582
696 1 0.225695 0.726437 0.888021
927 1 0.278888 0.675339 0.816328
1488 1 0.0515595 0.64072 0.818706
568 1 0.317134 0.519924 0.782476
297 1 0.0853212 0.601551 0.8832
1236 1 0.155932 0.636642 0.949788
634 1 0.288827 0.621915 0.884006
824 1 0.310298 0.591762 0.80912
1041 1 0.165855 0.564326 0.935812
1511 1 0.249473 0.552278 0.882655
1057 1 0.315554 0.557905 0.992349
1850 1 0.11478 0.732899 0.987974
1372 1 0.0153703 0.68864 0.957774
93 1 0.201956 0.662872 0.794275
1696 1 0.26179 0.591365 0.944868
1983 1 0.212843 0.586138 0.828045
886 1 0.0735861 0.644885 0.968539
1068 1 0.208796 0.693214 0.955414
1060 1 0.0476766 0.714056 0.803071
693 1 0.0860291 0.562695 0.956769
1379 1 0.131421 0.683351 0.777674
1972 1 0.0642371 0.683999 0.897579
1517 1 0.0692935 0.531939 0.870358
768 1 0.123887 0.736285 0.839389
335 1 0.29703 0.705524 0.926374
1278 1 0.18365 0.550147 0.756044
2015 1 0.0358455 0.889872 0.208475
981 1 0.303437 0.884577 0.14038
1473 1 0.255317 0.975232 0.0148862
945 1 0.086117 0.966574 0.0797538
1378 1 0.266882 0.950338 0.175441
671 1 0.248845 0.88776 0.029362
410 1 0.182253 0.964566 0.139724
157 1 0.126216 0.845454 0.0828388
96 1 0.318898 0.922226 0.0364084
2031 1 0.152504 0.960866 0.0477684
780 1 0.0818515 0.796644 0.118174
731 1 0.303851 0.779559 0.201984
1730 1 0.00331046 0.820375 0.206503
1000 1 0.15411 0.866632 0.171699
1484 1 0.266929 0.851293 0.214158
1550 1 0.00927668 0.821556 0.124025
1822 1 0.0140804 0.919286 0.076322
648 1 0.175909 0.897289 0.102685
456 1 0.162677 0.835929 0.017013
642 1 0.0350049 0.967968 0.149056
608 1 0.0517114 0.974407 0.0132681
1648 1 0.166975 0.946886 0.210797
1183 1 0.104141 0.92687 0.170537
978 1 0.19797 0.839061 0.233375
725 1 0.25104 0.835845 0.109434
172 1 0.305566 0.759075 0.0690997
1947 1 0.0608317 0.820119 0.0424898
52 1 0.0625358 0.888256 0.125711
306 1 0.0869293 0.894812 0.0389993
270 1 0.298214 0.973527 0.0853796
1185 1 0.0723044 0.945798 0.237391
1764 1 0.109658 0.803963 0.186233
1843 1 0.195499 0.794848 0.074706
1116 1 0.156989 0.767504 0.131355
259 1 0.225025 0.885898 0.160491
539 1 0.320178 0.809274 0.129158
343 1 0.230378 0.944932 0.0908197
302 1 0.00851742 0.751534 0.084227
409 1 0.219927 0.805316 0.171137
714 1 0.0255035 0.757809 0.154919
741 1 0.113809 0.769031 0.0537506
1568 1 0.15568 0.77076 0.23374
1796 1 0.237792 0.763458 0.247273
562 1 0.020847 0.874454 0.0112877
2039 1 0.105672 0.997369 0.145594
493 1 0.310557 0.823899 0.0241001
827 1 0.299793 0.931618 0.242711
1003 1 0.331692 0.764748 0.308292
500 1 0.200399 0.922858 0.388743
1775 1 0.0217526 0.915732 0.479682
1895 1 0.274624 0.755682 0.37908
213 1 0.161901 0.856365 0.366056
1222 1 0.0753127 0.816183 0.460161
895 1 0.158726 0.806601 0.298646
1350 1 0.161044 0.75771 0.349619
903 1 0.0818118 0.917074 0.331851
1481 1 0.179179 0.947854 0.313706
1451 1 0.210877 0.860161 0.493822
891 1 0.077638 0.973279 0.442726
814 1 0.00809177 0.834513 0.421657
1667 1 0.14341 0.881397 0.267183
835 1 0.137359 0.869058 0.488378
2024 1 0.0830451 0.766009 0.334
772 1 0.130703 0.917512 0.427602
225 1 0.26788 0.891403 0.382879
1883 1 0.0668788 0.880993 0.397136
174 1 0.322674 0.985142 0.351484
1921 1 0.297273 0.89961 0.314347
787 1 0.2024 0.843825 0.421089
1670 1 0.229638 0.812566 0.362028
1081 1 0.145161 0.955532 0.486864
18 1 0.107474 0.975433 0.299922
1551 1 0.120564 0.801711 0.397331
54 1 0.0213901 0.873012 0.271967
1642 1 0.289579 0.892087 0.459535
144 1 0.277122 0.832804 0.283847
58 1 0.221371 0.87457 0.321
1411 1 0.0966975 0.840181 0.331466
1169 1 0.245338 0.794515 0.475877
481 1 0.21906 0.966637 0.460769
1343 1 0.25241 0.967546 0.303153
1806 1 0.0303567 0.765821 0.411204
1606 1 0.301652 0.82509 0.353572
510 1 0.0093555 0.948872 0.277585
2045 1 0.0212551 0.802233 0.295852
956 1 -0.0023003 0.963293 0.35226
1050 1 0.220511 0.919441 0.256753
842 1 0.0725628 0.980719 0.364302
1603 1 0.144931 0.991694 0.419242
26 1 0.00422999 0.884875 0.341287
1380 1 0.0792621 0.823088 0.253198
1941 1 0.122313 0.948151 0.562801
1856 1 0.0729199 0.937483 0.624401
232 1 0.073564 0.770525 0.646515
123 1 0.171377 0.781555 0.50245
1115 1 0.124794 0.755496 0.55056
147 1 0.0744191 0.881508 0.521029
1373 1 0.213467 0.981785 0.544112
2025 1 0.282047 0.914555 0.544961
1342 1 0.0554513 0.902862 0.68519
858 1 0.208488 0.915988 0.590212
1228 1 0.203187 0.801658 0.606429
982 1 0.267217 0.996989 0.603435
2020 1 0.267556 0.900714 0.734303
1450 1 0.26481 0.97944 0.686601
1080 1 0.120497 0.811463 0.713434
884 1 0.0567262 0.863392 0.616186
1125 1 0.246275 0.863125 0.65984
505 1 0.270893 0.801701 0.627722
548 1 0.332625 0.926304 0.685482
1364 1 0.281399 0.92627 0.626809
1687 1 0.133901 0.950932 0.677425
1433 1 0.126951 0.884877 0.723602
1494 1 0.138245 0.902841 0.621205
194 1 0.302655 0.832819 0.506636
392 1 0.177106 0.978414 0.607195
1950 1 0.0793911 0.98069 0.512687
43 1 0.28146 0.773851 0.69075
491 1 0.0459759 0.797153 0.523322
706 1 0.274307 0.777448 0.554778
2046 1 0.254263 0.853075 0.567516
9 1 0.107805 0.816026 0.591946
1154 1 0.205608 0.922844 0.699058
1599 1 0.0396245 0.934663 0.55828
892 1 -0.000169417 0.995137 0.508936
958 1 0.172083 0.849202 0.661736
1540 1 0.200535 0.771943 0.684315
831 1 0.161441 0.864406 0.557406
1893 1 0.266712 0.820504 0.747675
1011 1 0.189629 0.836484 0.733487
2016 1 0.00804142 0.857541 0.52001
1204 1 0.0491959 0.822626 0.738142
1726 1 0.326265 0.855792 0.573852
1563 1 0.223757 0.887016 0.792698
1030 1 0.153337 0.98303 0.964092
1828 1 0.0947023 0.99489 0.767555
802 1 0.234897 0.826547 0.997043
1305 1 0.0263211 0.97172 0.787553
2040 1 0.186419 0.771534 0.972817
1697 1 0.136501 0.876017 0.812049
571 1 0.0296664 0.931984 0.958814
968 1 0.258536 0.800174 0.863697
417 1 0.253671 0.949824 0.847363
1449 1 0.154833 0.94516 0.758195
1672 1 0.078753 0.956584 0.888559
1535 1 0.278358 0.997218 0.921455
1348 1 0.115268 0.809682 0.969429
1141 1 0.222893 0.937827 0.923018
521 1 0.318528 0.906155 0.899715
1140 1 0.181807 0.8379 0.942474
1967 1 0.247176 0.967168 0.754563
1565 1 0.112133 0.856072 0.898265
1976 1 0.065067 0.84835 0.81239
175 1 0.16675 0.785576 0.87875
1908 1 0.284584 0.935951 0.961466
1518 1 0.287424 0.874821 0.834689
1218 1 0.20085 0.885802 0.859186
1355 1 0.328839 0.778995 0.771873
774 1 0.0510586 0.790392 0.929204
103 1 0.031023 0.89512 0.867585
1788 1 0.0763225 0.925807 0.814428
937 1 0.055854 0.778804 0.843861
843 1 0.210583 0.812109 0.811031
479 1 0.252889 0.763941 0.946161
1522 1 0.15435 0.945702 0.831384
1597 1 0.145866 0.929377 0.901869
1245 1 0.318083 0.988437 0.763426
1089 1 0.247655 0.86547 0.919537
466 1 0.147071 0.907508 0.983694
218 1 0.115287 0.795479 0.790093
1210 1 0.0311654 0.887741 0.758306
25 1 0.305933 0.815019 0.926155
2047 1 0.0341619 0.770488 0.996007
431 1 0.0544646 1.00151 0.943281
1059 1 0.196535 0.997007 0.80123
1909 1 0.246595 0.754703 0.778281
2007 1 0.173068 0.759985 0.772424
1683 1 0.659369 0.00754461 0.0767154
1469 1 0.603295 0.173309 0.0567931
1858 1 0.615299 0.106313 0.122604
205 1 0.469248 0.0990302 0.00239516
1058 1 0.474288 0.122571 0.11393
79 1 0.58644 0.238068 0.201377
102 1 0.628371 0.0283281 0.0129102
1197 1 0.39037 0.156277 0.224971
592 1 0.608657 0.0419519 0.166012
1078 1 0.548154 0.168864 0.128897
535 1 0.341319 0.228406 0.173208
407 1 0.62735 0.243099 0.020841
62 1 0.411681 0.0828414 0.214607
2 1 0.447941 0.187736 0.0303102
171 1 0.480399 0.0806055 0.240322
398 1 0.43076 0.00993714 0.0842099
678 1 0.503506 0.232523 0.148575
1820 1 0.589867 0.0974286 0.0415675
1283 1 0.391734 0.116607 0.0396224
107 1 0.449167 0.207959 0.100895
422 1 0.466852 0.173801 0.235314
6 1 0.426911 0.150256 0.161866
1943 1 0.384774 0.17496 0.103507
748 1 0.488019 0.0666918 0.0641456
1386 1 0.369826 0.0231561 0.181066
967 1 0.598762 0.150232 0.192086
759 1 0.461709 0.0561912 0.165698
557 1 0.442865 0.0225958 0.0109405
806 1 0.620755 0.207212 0.139769
555 1 0.57374 0.015698 0.0726516
1179 1 0.513373 0.153775 0.0547797
1297 1 0.544091 0.0691709 0.146131
1615 1 0.548889 0.19762 0.0123011
1385 1 0.545576 0.0584114 0.220804
1091 1 0.395173 0.0960955 0.109098
1395 1 0.346699 0.19405 0.0443777
1491 1 0.422974 0.015769 0.250062
1846 1 0.348671 0.0223977 0.113044
1881 1 0.424035 0.24606 0.160224
647 1 0.660918 0.229639 0.227324
199 1 0.514704 0.240993 0.232707
1612 1 0.542151 0.176076 0.25975
559 1 0.518935 0.0105922 0.357925
1811 1 0.388476 0.197603 0.300723
922 1 0.600625 0.200591 0.382621
685 1 0.380633 0.0457714 0.311761
1027 1 0.357359 0.0935308 0.263542
1719 1 0.545161 0.0354726 0.452215
943 1 0.477227 0.190942 0.32235
134 1 0.513317 0.12608 0.352703
1431 1 0.39964 0.249402 0.434422
1339 1 0.434815 0.135952 0.385084
224 1 0.616479 0.196032 0.285219
1790 1 0.373164 0.14477 0.447386
567 1 0.513103 0.0515108 0.299367
2028 1 0.604563 0.232124 0.461331
1945 1 0.434832 0.130987 0.297172
784 1 0.44988 0.0591858 0.338128
465 1 0.566491 0.0984394 0.413127
700 1 0.663097 0.0747855 0.29333
724 1 0.386329 0.00872655 0.422683
1957 1 0.403674 0.000270312 0.493861
291 1 0.577605 0.0704867 0.345446
1863 1 0.399632 0.200974 0.378345
1714 1 0.591747 0.138356 0.322086
848 1 0.49683 0.22834 0.475239
526 1 0.643525 0.0349211 0.468998
341 1 0.366865 0.106824 0.356479
545 1 0.347372 0.0708729 0.454829
1666 1 0.533598 0.216604 0.371057
929 1 0.601383 0.103598 0.257693
1357 1 0.588681 0.0914075 0.484438
155 1 0.647381 0.0428043 0.383312
713 1 0.48319 0.180524 0.419711
17 1 0.506949 0.125845 0.469449
1927 1 0.558291 0.179732 0.4414
1875 1 0.442552 0.056163 0.441493
267 1 0.649106 0.140175 0.423409
1100 1 0.381067 0.146248 0.649323
1434 1 0.654723 0.0679373 0.664869
287 1 0.408937 0.170444 0.533183
890 1 0.364336 0.164143 0.73376
1187 1 0.58997 0.165758 0.511225
513 1 0.508785 0.170623 0.728426
22 1 0.538596 0.0368593 0.69661
435 1 0.652462 0.151377 0.573312
1503 1 0.433918 0.21452 0.650264
1842 1 0.57593 0.171895 0.686021
233 1 0.626292 0.101314 0.728121
1625 1 0.400636 0.0873002 0.69914
1874 1 0.418227 0.0862651 0.615483
635 1 0.381837 0.103693 0.522395
832 1 0.484886 0.250651 0.697802
1290 1 0.530045 0.136169 0.5719
1267 1 0.342217 0.0474384 0.564785
880 1 0.508188 0.20536 0.639751
1164 1 0.499553 0.128807 0.657945
1739 1 0.486285 0.0268261 0.506472
348 1 0.441706 0.244297 0.532415
1882 1 0.571715 0.110949 0.641117
1321 1 0.641387 0.227693 0.54673
197 1 0.439358 0.1623 0.718335
1340 1 0.4745 0.0851928 0.728097
1757 1 0.589615 0.103512 0.557799
1651 1 0.48412 0.0552593 0.631057
1035 1 0.544386 0.0297045 0.551513
1817 1 0.439887 0.0281558 0.56611
1554 1 0.654691 0.143955 0.651317
877 1 0.334218 0.0239022 0.685269
1592 1 0.599811 0.0340396 0.615534
374 1 0.51985 0.210071 0.561465
245 1 0.616869 0.0277994 0.54304
949 1 0.400793 0.244962 0.712171
286 1 0.548527 0.107118 0.715103
1439 1 0.392403 0.244673 0.593167
1261 1 0.346726 0.162114 0.570115
541 1 0.614658 0.211113 0.618697
969 1 0.458508 0.0935537 0.525065
1076 1 0.622391 0.240007 0.709453
1012 1 0.549407 0.233635 0.735319
309 1 0.357851 0.234116 0.51559
1472 1 0.401107 0.0335466 0.749031
2012 1 0.61297 0.0218923 0.744148
923 1 0.340309 0.0783673 0.74499
675 1 0.467365 0.00620722 0.687565
511 1 0.647084 0.217462 0.952985
1117 1 0.539078 0.12064 0.989451
1082 1 0.57685 0.170565 0.761085
406 1 0.599365 0.078562 0.874866
874 1 0.490441 0.0460693 0.950047
1617 1 0.359853 0.151227 0.826883
203 1 0.463873 0.136038 0.808594
1079 1 0.397755 0.110623 0.779051
617 1 0.528239 0.141223 0.851279
45 1 0.549078 0.032012 0.908058
931 1 0.410846 0.0490587 0.894618
769 1 0.474078 0.15014 0.954475
1798 1 0.61929 0.137624 0.985362
1095 1 0.338196 0.0899225 0.868921
549 1 0.575869 0.180314 0.943087
1423 1 0.593715 0.0911695 0.794162
173 1 0.605498 0.21835 0.838993
609 1 0.409601 0.18685 0.789714
248 1 0.494544 0.219682 0.942729
1886 1 0.347145 0.142947 0.97076
786 1 0.448921 0.186065 0.876833
1508 1 0.525627 0.0645088 0.829446
1834 1 0.539797 0.00181516 0.763729
329 1 0.618785 0.0413897 0.935086
1127 1 0.367346 0.0136137 0.980265
873 1 0.412175 0.0791272 0.960349
525 1 0.381927 0.210957 0.943886
1413 1 0.629787 0.167326 0.896076
1242 1 0.372824 0.215524 0.86162
1376 1 0.542811 0.100706 0.913836
1854 1 0.643155 0.149651 0.819163
633 1 0.65824 0.179849 0.748329
1354 1 0.370795 0.0499943 0.814416
1521 1 0.399692 0.13172 0.892172
30 1 0.472728 0.0952032 0.872182
1435 1 0.510338 0.194886 0.798865
478 1 0.599953 0.00753509 0.815193
699 1 0.521463 0.214152 0.872537
2048 1 0.472318 0.00623623 0.884089
1802 1 0.457841 0.240444 0.770777
1659 1 0.335882 0.0363616 0.918808
1203 1 0.354193 0.235497 0.784195
547 1 0.437903 0.246762 0.910384
183 1 0.454627 0.00747399 0.804567
657 1 0.450749 0.366861 0.0144127
1362 1 0.557852 0.348598 0.102179
24 1 0.656551 0.287661 0.163572
1885 1 0.470722 0.308566 0.17603
1085 1 0.426868 0.264992 0.0635218
742 1 0.460572 0.44283 0.152489
1979 1 0.576208 0.380802 0.187329
703 1 0.666953 0.304922 0.245297
2011 1 0.394323 0.332936 0.0803052
472 1 0.538603 0.41611 0.0545821
1971 1 0.529013 0.34757 0.0085926
331 1 0.392695 0.458402 0.167307
1835 1 0.485304 0.377722 0.223322
952 1 0.363961 0.473846 0.0588295
626 1 0.504002 0.258387 0.0428609
584 1 0.661486 0.361652 0.188031
1644 1 0.575422 0.317876 0.231583
1377 1 0.546398 0.442673 0.117918
368 1 0.399297 0.414154 0.0852235
187 1 0.335866 0.396018 0.186631
681 1 0.449419 0.443544 0.235802
429 1 0.512634 0.38135 0.151509
1110 1 0.493344 0.308982 0.0947213
89 1 0.645985 0.444956 0.0279009
586 1 0.428174 0.385069 0.177972
760 1 0.479576 0.379566 0.0895163
1897 1 0.57074 0.297645 0.0422893
729 1 0.640652 0.459498 0.148053
1567 1 0.595969 0.374914 0.0345922