ITEM: TIMESTEP
100000
ITEM: NUMBER OF ATOMS
2048
ITEM: BOX BOUNDS pp pp pp
0.0000000000000000e+00 1.1788900795649237e+01
0.0000000000000000e+00 1.1788900795649237e+01
0.0000000000000000e+00 1.1788900795649237e+01
ITEM: ATOMS id type xs ys zs
1253 1 0.129887 0.879552 0.491199
15 1 0.447366 0.995819 0.0558377
1261 1 0.377545 0.874674 0.497778
150 1 0.687662 0.555932 0.00689043
20 1 0.504026 0.0656317 0.0590896
24 1 0.622971 0.0701693 0.0652382
28 1 0.744908 0.0544545 0.0621944
238 1 0.429643 0.936195 0.00356067
1090 1 0.0600184 0.316755 0.493109
181 1 0.629222 0.621176 0.00889787
153 1 0.747764 0.499829 -0.00091218
47 1 0.437638 0.130333 0.0607814
137 1 0.255693 0.501013 0.0109454
1133 1 0.379988 0.370363 0.496505
73 1 0.25672 0.255357 0.00184203
52 1 0.498632 0.188019 0.0607016
56 1 0.634677 0.187279 0.0670942
161 1 0.997842 0.610142 -0.00109896
64 1 0.861933 0.175662 0.0662183
118 1 0.700627 0.43557 -0.00203203
1105 1 0.506525 0.247319 0.499864
1038 1 0.430751 0.0749156 0.491325
1102 1 0.442925 0.309628 0.500708
246 1 0.677593 0.940754 0.00629735
80 1 0.369246 0.320164 0.0660938
249 1 0.739622 0.877356 0.0027465
1202 1 0.56846 0.682076 0.494512
250 1 0.823607 0.937638 0.0126108
206 1 0.429711 0.81048 0.00315911
1141 1 0.626138 0.379859 0.503782
1161 1 0.25467 0.507038 0.492254
1169 1 0.502175 0.495322 0.486449
1270 1 0.691231 0.939255 0.498038
1246 1 0.952685 0.809905 0.495064
1097 1 0.247229 0.251393 0.484745
1137 1 0.50092 0.375883 0.499805
120 1 0.622539 0.43217 0.061268
124 1 0.748869 0.431449 0.0729792
1158 1 0.189143 0.559576 0.489405
1069 1 0.368414 0.127021 0.493053
1225 1 0.250284 0.748932 0.496245
135 1 0.184699 0.506197 0.0597357
143 1 0.439548 0.499604 0.0641592
147 1 0.562031 0.50059 0.0602232
37 1 0.127043 0.12528 0.00801595
1094 1 0.183528 0.296392 0.503111
1214 1 0.940375 0.694583 0.491142
122 1 0.808875 0.447893 0.0119265
1238 1 0.685009 0.813011 0.499704
1166 1 0.438892 0.554092 0.487211
1061 1 0.129256 0.122663 0.491986
1257 1 0.253217 0.867535 0.483726
18 1 0.566321 0.0619901 0.00328659
198 1 0.188402 0.813502 0.00405677
183 1 0.692863 0.621343 0.0600994
1182 1 0.938429 0.563224 0.493866
1101 1 0.377044 0.243583 0.492827
209 1 0.507304 0.74644 0.00472726
194 1 0.0649842 0.817148 0.00260113
976 1 0.381977 0.806111 0.437903
1062 1 0.184389 0.189276 0.490208
188 1 0.748459 0.682033 0.0641353
253 1 0.869747 0.86457 0.0103522
22 1 0.681826 0.0639768 0.00182349
69 1 0.118188 0.251153 0.00425477
215 1 0.688054 0.746377 0.064405
219 1 0.80918 0.744086 0.0667927
196 1 -0.00039662 0.813201 0.0741026
212 1 0.503878 0.819451 0.0627492
1262 1 0.431615 0.942772 0.500851
979 1 0.552353 0.746844 0.434863
189 1 0.874121 0.612567 -0.00220921
1066 1 0.31888 0.187525 0.486141
1213 1 0.877159 0.633849 0.498571
1245 1 0.875428 0.750525 0.491436
228 1 0.995399 0.936338 0.0715958
959 1 0.929755 0.627941 0.438559
1254 1 0.186433 0.942189 0.488293
252 1 0.749658 0.952861 0.0564243
19 1 0.569247 0.00236964 0.0640326
23 1 0.67944 1.00213 0.0612903
186 1 0.808956 0.68296 0.00590393
11 1 0.308931 -0.000420753 0.0601278
31 1 0.93299 0.00417487 0.0654611
4 1 0.995312 0.0586091 0.0717644
8 1 0.118176 0.0647217 0.0608178
12 1 0.255857 0.0690075 0.0544023
16 1 0.370106 0.0566796 0.0592198
32 1 0.868376 0.0669087 0.0688119
35 1 0.0540824 0.124336 0.0639234
39 1 0.185513 0.114061 0.0679615
43 1 0.321747 0.122489 0.054303
51 1 0.560318 0.126996 0.0579849
55 1 0.691202 0.123132 0.0627736
59 1 0.802066 0.117617 0.0622544
63 1 0.934188 0.129399 0.0583525
40 1 0.117756 0.181319 0.0705373
44 1 0.253477 0.197004 0.0652876
48 1 0.381503 0.1954 0.057313
60 1 0.752466 0.199549 0.0559674
36 1 0.997013 0.185718 0.0595071
67 1 0.061941 0.250809 0.063323
71 1 0.188682 0.252078 0.0669702
75 1 0.318316 0.2517 0.066144
79 1 0.43621 0.253069 0.0611383
83 1 0.556723 0.249451 0.064909
87 1 0.692582 0.255091 0.0636965
91 1 0.820545 0.250466 0.057685
95 1 0.938068 0.248209 0.0636162
68 1 0.00486913 0.315085 0.0665047
322 1 0.0674694 0.308071 0.129821
72 1 0.131845 0.320484 0.0629174
76 1 0.251768 0.315309 0.0666762
84 1 0.499616 0.30889 0.0674471
88 1 0.631012 0.306216 0.0695725
92 1 0.752671 0.312286 0.0618994
96 1 0.876272 0.31833 0.0538421
99 1 0.0628708 0.3775 0.0643095
103 1 0.190318 0.376089 0.0612624
107 1 0.309205 0.380948 0.0666109
111 1 0.441528 0.372149 0.0659635
115 1 0.566749 0.36298 0.0494479
119 1 0.686578 0.373365 0.0576827
123 1 0.814524 0.374994 0.0606042
127 1 0.944893 0.373397 0.0645577
100 1 0.00863148 0.446955 0.0596857
104 1 0.123322 0.444905 0.0556648
108 1 0.249561 0.440592 0.0645604
112 1 0.380422 0.427498 0.0552798
116 1 0.506666 0.434082 0.0593089
128 1 0.883119 0.433693 0.0614245
131 1 0.0630949 0.510579 0.0680906
151 1 0.694359 0.494971 0.0610522
155 1 0.816695 0.507134 0.0762732
159 1 0.941011 0.504538 0.0677139
136 1 0.124578 0.564491 0.0529765
139 1 0.327122 0.489123 0.0544944
398 1 0.438088 0.567843 0.124552
140 1 0.250179 0.565508 0.0651448
144 1 0.376695 0.562585 0.0628839
148 1 0.506235 0.564498 0.0509541
152 1 0.629588 0.552927 0.0633689
156 1 0.746123 0.557245 0.0633903
160 1 0.877523 0.563655 0.0679712
132 1 0.996417 0.566531 0.0711697
163 1 0.067751 0.624416 0.057009
167 1 0.18651 0.631891 0.0705631
171 1 0.311383 0.626534 0.0588807
175 1 0.437799 0.627346 0.0559143
179 1 0.5631 0.625882 0.0524218
187 1 0.817418 0.618174 0.0593172
191 1 0.938251 0.623849 0.0659469
164 1 0.000809105 0.67654 0.0613015
168 1 0.128079 0.687144 0.056812
172 1 0.249026 0.685898 0.0507236
176 1 0.368733 0.689987 0.0571811
180 1 0.504542 0.685771 0.0571017
184 1 0.6204 0.690401 0.0561322
192 1 0.872457 0.684307 0.0651161
195 1 0.0598772 0.744094 0.0548605
199 1 0.182506 0.747037 0.0739536
203 1 0.305817 0.751225 0.0540764
207 1 0.440023 0.762498 0.0726359
211 1 0.570443 0.755358 0.0647066
473 1 0.747978 0.738701 0.122649
223 1 0.942241 0.743937 0.066595
200 1 0.138882 0.82202 0.0730283
204 1 0.25255 0.806167 0.0602484
208 1 0.3706 0.807291 0.0583797
216 1 0.628691 0.813198 0.0559567
220 1 0.746448 0.807304 0.0569126
224 1 0.873025 0.797311 0.0668675
227 1 0.0612677 0.869534 0.0745822
231 1 0.195244 0.880742 0.0734849
235 1 0.307874 0.876499 0.0611907
239 1 0.428164 0.875695 0.0647073
243 1 0.568193 0.866767 0.066617
247 1 0.683712 0.870682 0.0629345
251 1 0.798593 0.872709 0.0627842
255 1 0.928093 0.859119 0.0717144
232 1 0.128866 0.923263 0.0631538
236 1 0.242802 0.948293 0.0550313
240 1 0.362869 0.938366 0.0578943
244 1 0.504681 0.938718 0.0553738
248 1 0.630268 0.93551 0.0727515
256 1 0.879555 0.945291 0.0646291
3 1 0.0597108 0.991783 0.0575151
7 1 0.181065 0.00665476 0.0618446
27 1 0.81166 0.00314402 0.0694623
258 1 0.059272 0.0573121 0.119855
265 1 0.240073 0.0077435 0.117272
269 1 0.370039 0.00802368 0.125089
274 1 0.565899 0.0645264 0.128723
281 1 0.738701 0.00440901 0.125592
282 1 0.806471 0.0582299 0.130371
286 1 0.933301 0.0586948 0.13278
262 1 0.176057 0.06191 0.12993
266 1 0.306361 0.0654703 0.122975
270 1 0.447373 0.0582121 0.124869
278 1 0.6848 0.0641768 0.131316
293 1 0.118534 0.11844 0.125925
297 1 0.248459 0.130804 0.11815
301 1 0.372787 0.124304 0.114616
305 1 0.506058 0.123333 0.121762
309 1 0.626328 0.122612 0.137062
313 1 0.746841 0.126371 0.136311
317 1 0.865719 0.12233 0.131452
289 1 0.997823 0.121125 0.12823
290 1 0.055752 0.19564 0.12366
294 1 0.190837 0.188805 0.125214
298 1 0.315089 0.194427 0.127213
302 1 0.434358 0.18357 0.125174
306 1 0.56234 0.186614 0.1205
310 1 0.685977 0.185643 0.130118
314 1 0.800291 0.18206 0.126859
318 1 0.941112 0.185323 0.123556
321 1 0.998556 0.257593 0.132865
325 1 0.135673 0.250964 0.127055
329 1 0.254714 0.250444 0.124645
333 1 0.375462 0.268128 0.12405
337 1 0.493613 0.244509 0.121372
341 1 0.625995 0.243998 0.127009
345 1 0.744259 0.242023 0.128713
349 1 0.877018 0.238962 0.11619
326 1 0.182563 0.317049 0.131262
330 1 0.311398 0.315031 0.125293
334 1 0.446779 0.317097 0.134499
338 1 0.568332 0.318347 0.128889
342 1 0.687277 0.321543 0.124488
346 1 0.811327 0.309657 0.122102
350 1 0.939995 0.316466 0.128332
353 1 0.00316888 0.374879 0.124471
357 1 0.125385 0.37868 0.121115
361 1 0.242158 0.375791 0.12514
365 1 0.37936 0.374244 0.123138
369 1 0.505725 0.375219 0.119278
373 1 0.629888 0.380725 0.119662
377 1 0.752338 0.371129 0.135063
381 1 0.879235 0.372576 0.115181
354 1 0.0702644 0.442626 0.123885
358 1 0.180352 0.443224 0.118606
362 1 0.313458 0.446607 0.131031
366 1 0.437423 0.446604 0.124239
374 1 0.691748 0.435758 0.13112
378 1 0.820239 0.427117 0.11976
382 1 0.947428 0.43698 0.119013
393 1 0.250443 0.500925 0.122565
397 1 0.374364 0.503969 0.124805
370 1 0.571106 0.443336 0.122655
409 1 0.7502 0.503791 0.129187
413 1 0.879581 0.485811 0.123798
385 1 0.00319513 0.499847 0.123363
389 1 0.126936 0.511176 0.123044
401 1 0.502155 0.498702 0.117218
405 1 0.631051 0.497356 0.131677
386 1 0.0612881 0.571401 0.127832
390 1 0.202121 0.566575 0.12776
394 1 0.318509 0.564837 0.130308
402 1 0.567439 0.557755 0.127823
406 1 0.689644 0.558773 0.124993
410 1 0.824943 0.565677 0.137083
414 1 0.934371 0.567989 0.129058
421 1 0.121351 0.62956 0.125861
425 1 0.263602 0.625633 0.12616
429 1 0.376927 0.633112 0.120865
433 1 0.501186 0.622317 0.138336
437 1 0.62132 0.619025 0.108976
441 1 0.749324 0.615358 0.12334
445 1 0.880018 0.62567 0.120623
417 1 0.997295 0.625008 0.134787
418 1 0.0585313 0.687522 0.130269
422 1 0.183936 0.689833 0.125089
426 1 0.306623 0.698309 0.120284
430 1 0.445122 0.680333 0.121646
434 1 0.561317 0.676188 0.121081
438 1 0.674924 0.6757 0.121983
442 1 0.807978 0.679591 0.122056
446 1 0.940451 0.681358 0.121341
453 1 0.122166 0.745188 0.126189
457 1 0.246982 0.755791 0.124658
461 1 0.374129 0.742081 0.119732
465 1 0.506065 0.748262 0.123637
469 1 0.619407 0.7385 0.123986
477 1 0.859606 0.746867 0.13115
449 1 1.00054 0.737823 0.124414
450 1 0.061566 0.804291 0.130713
454 1 0.199332 0.823627 0.130871
458 1 0.31811 0.814925 0.128017
462 1 0.421443 0.820122 0.131149
466 1 0.565397 0.803734 0.128643
470 1 0.6912 0.812762 0.119408
474 1 0.804986 0.80948 0.1182
478 1 0.938254 0.79948 0.123442
481 1 1.00099 0.870226 0.135594
485 1 0.126594 0.870362 0.136916
489 1 0.253465 0.886053 0.126085
493 1 0.368856 0.889741 0.122111
497 1 0.492045 0.879244 0.120246
501 1 0.62222 0.865359 0.127576
505 1 0.749968 0.871016 0.130545
509 1 0.872492 0.86855 0.131244
482 1 0.0609321 0.93431 0.128191
486 1 0.182018 0.937491 0.12921
490 1 0.306955 0.946453 0.124802
494 1 0.435529 0.937762 0.11666
498 1 0.567655 0.92832 0.120799
502 1 0.690312 0.932829 0.125258
506 1 0.794393 0.941734 0.123245
510 1 0.93317 0.923821 0.122708
257 1 0.996311 0.995529 0.127072
261 1 0.120543 0.991684 0.116027
273 1 0.508108 0.995173 0.121109
277 1 0.627706 0.0034845 0.122787
285 1 0.871406 0.00652674 0.125083
260 1 0.999596 0.0616774 0.185119
259 1 0.0616741 0.992175 0.194345
280 1 0.630892 0.0653605 0.196728
283 1 0.806431 0.998391 0.18786
288 1 0.875899 0.0701195 0.188455
264 1 0.121408 0.0602293 0.193493
268 1 0.241142 0.0717997 0.176715
272 1 0.377336 0.075276 0.182201
276 1 0.503767 0.0530581 0.184065
284 1 0.741338 0.0645573 0.191082
291 1 0.059381 0.120343 0.183096
295 1 0.187402 0.133454 0.181981
299 1 0.307291 0.122603 0.177094
303 1 0.441787 0.123195 0.182717
307 1 0.560521 0.122308 0.186808
311 1 0.685767 0.128847 0.194047
315 1 0.808936 0.11696 0.195854
319 1 0.936639 0.122576 0.182626
296 1 0.126466 0.190215 0.188986
300 1 0.256258 0.186443 0.179586
304 1 0.37157 0.193978 0.183847
308 1 0.500128 0.190223 0.182912
312 1 0.615687 0.188768 0.18974
316 1 0.752855 0.185979 0.196707
320 1 0.876314 0.182185 0.196099
292 1 0.99747 0.188275 0.183052
323 1 0.0622586 0.250986 0.190663
327 1 0.185283 0.252793 0.189693
331 1 0.311681 0.255118 0.1927
335 1 0.440367 0.246083 0.184657
339 1 0.562867 0.256698 0.192947
343 1 0.684869 0.258473 0.193145
347 1 0.817832 0.234978 0.189761
351 1 0.935381 0.250435 0.182151
328 1 0.121142 0.318748 0.19152
332 1 0.249055 0.314402 0.186065
336 1 0.379923 0.316701 0.193994
340 1 0.501463 0.312074 0.190733
344 1 0.627213 0.331053 0.183795
348 1 0.756149 0.300351 0.184297
352 1 0.87668 0.309993 0.182348
324 1 0.00765338 0.312763 0.193615
355 1 0.0684239 0.384778 0.177281
359 1 0.184269 0.384397 0.183284
363 1 0.318306 0.37498 0.183963
367 1 0.431365 0.383606 0.188926
371 1 0.56282 0.383187 0.18982
375 1 0.692569 0.381031 0.195077
379 1 0.815625 0.369969 0.181575
383 1 0.937185 0.384943 0.184618
360 1 0.127002 0.450039 0.187172
364 1 0.251979 0.436583 0.186423
368 1 0.379258 0.44758 0.181749
372 1 0.500956 0.440628 0.194585
376 1 0.630418 0.432814 0.19848
380 1 0.757953 0.433031 0.188231
384 1 0.866156 0.434465 0.190115
356 1 0.000538375 0.444425 0.181133
391 1 0.195057 0.499066 0.18515
403 1 0.566514 0.49877 0.182985
411 1 0.813967 0.49905 0.182686
415 1 0.927868 0.494802 0.189442
387 1 0.0628321 0.508277 0.182502
395 1 0.31818 0.497729 0.189505
399 1 0.44153 0.502669 0.183956
407 1 0.687653 0.502409 0.186356
392 1 0.132009 0.560754 0.196321
396 1 0.254704 0.559082 0.183663
400 1 0.373395 0.557585 0.192817
404 1 0.504621 0.554035 0.181625
408 1 0.630362 0.56095 0.183079
412 1 0.755974 0.562386 0.187849
416 1 0.880939 0.561218 0.19721
388 1 0.996144 0.560064 0.188319
419 1 0.0591564 0.626891 0.191589
423 1 0.198843 0.628013 0.181166
427 1 0.32439 0.62641 0.18631
431 1 0.436246 0.618462 0.188688
435 1 0.563489 0.619855 0.187649
439 1 0.69126 0.614028 0.182616
443 1 0.812302 0.634739 0.187593
447 1 0.935162 0.631285 0.202268
420 1 0.993289 0.689169 0.193959
424 1 0.122357 0.688422 0.188049
428 1 0.261516 0.685425 0.188502
432 1 0.380486 0.686962 0.182133
436 1 0.493215 0.686642 0.197658
440 1 0.627967 0.674274 0.189591
444 1 0.737188 0.68058 0.182584
448 1 0.873497 0.685471 0.199688
451 1 0.062005 0.751934 0.189984
455 1 0.191051 0.749124 0.187602
459 1 0.315205 0.747478 0.194272
463 1 0.434423 0.750819 0.186161
467 1 0.562925 0.746238 0.189006
471 1 0.68083 0.740364 0.183924
475 1 0.813603 0.752883 0.200466
479 1 0.93344 0.743116 0.183857
452 1 0.98875 0.808668 0.185851
456 1 0.133272 0.804743 0.183493
460 1 0.256739 0.816792 0.186178
464 1 0.372937 0.802132 0.196669
468 1 0.489063 0.809981 0.189766
472 1 0.635539 0.806945 0.181286
476 1 0.743858 0.798661 0.181836
480 1 0.874306 0.805916 0.195319
483 1 0.0602921 0.868336 0.192265
487 1 0.187003 0.881923 0.190668
491 1 0.315126 0.881987 0.187207
495 1 0.421718 0.888214 0.188884
499 1 0.56407 0.859217 0.188622
503 1 0.684548 0.871944 0.198611
507 1 0.806331 0.873614 0.194796
511 1 0.932984 0.873161 0.190082
492 1 0.244558 0.940332 0.186991
496 1 0.363954 0.949452 0.182336
500 1 0.490924 0.938767 0.185476
504 1 0.627214 0.935887 0.179072
508 1 0.747305 0.936505 0.190527
512 1 0.868542 0.936357 0.172387
484 1 0.993206 0.945152 0.187042
488 1 0.121548 0.931424 0.18961
263 1 0.173801 0.997289 0.189393
267 1 0.301111 0.00529364 0.184793
271 1 0.437463 -0.000244245 0.184581
275 1 0.564899 0.992043 0.181074
279 1 0.683929 8.18863e-05 0.192057
287 1 0.930796 0.997955 0.185571
517 1 0.117995 0.995335 0.249767
518 1 0.184267 0.0671279 0.246595
529 1 0.50456 0.995996 0.24836
534 1 0.685747 0.064901 0.252502
514 1 0.0596206 0.0623198 0.252588
522 1 0.305523 0.0679514 0.247911
526 1 0.437907 0.0654735 0.243419
530 1 0.562859 0.0632837 0.24383
538 1 0.801188 0.0691517 0.265384
542 1 0.939665 0.0595196 0.240579
549 1 0.116191 0.1257 0.242662
553 1 0.245768 0.120337 0.248072
557 1 0.36496 0.127656 0.248229
561 1 0.49678 0.129838 0.247465
565 1 0.611737 0.133167 0.246076
569 1 0.744182 0.127078 0.253876
573 1 0.870189 0.12526 0.25682
545 1 0.997278 0.116621 0.254729
546 1 0.0568523 0.188979 0.249192
550 1 0.191779 0.183306 0.247586
554 1 0.30499 0.185167 0.246184
558 1 0.432503 0.183096 0.246441
562 1 0.555461 0.189732 0.247426
566 1 0.687941 0.183942 0.254808
570 1 0.817318 0.186736 0.258918
574 1 0.943933 0.182462 0.250266
581 1 0.126117 0.250145 0.247781
585 1 0.250101 0.244354 0.243017
589 1 0.380848 0.250611 0.242431
593 1 0.493222 0.241688 0.247609
597 1 0.621564 0.25075 0.243244
601 1 0.751902 0.253685 0.258178
605 1 0.870478 0.249609 0.25095
577 1 0.00541078 0.251427 0.245675
578 1 0.0655071 0.308136 0.256238
582 1 0.181079 0.313294 0.243451
586 1 0.313967 0.314209 0.247752
590 1 0.44206 0.306912 0.247094
594 1 0.570652 0.314554 0.245641
598 1 0.695204 0.320236 0.250538
602 1 0.812471 0.311868 0.246631
606 1 0.943771 0.309373 0.247596
613 1 0.122209 0.384796 0.249777
617 1 0.255534 0.37682 0.243357
621 1 0.376263 0.378815 0.247431
625 1 0.493573 0.376408 0.248924
629 1 0.625939 0.377386 0.255159
633 1 0.749735 0.381198 0.254707
637 1 0.877119 0.371905 0.245094
609 1 0.0119974 0.376439 0.246863
610 1 0.0593777 0.440572 0.249087
614 1 0.182113 0.442394 0.247477
618 1 0.318893 0.435086 0.24185
622 1 0.432186 0.436353 0.244431
626 1 0.563049 0.434256 0.263692
630 1 0.693992 0.445696 0.250236
634 1 0.809561 0.432156 0.250127
638 1 0.939944 0.429038 0.253652
645 1 0.122553 0.50023 0.24881
653 1 0.379208 0.504095 0.254315
657 1 0.50606 0.505579 0.246308
661 1 0.627551 0.501158 0.258165
665 1 0.758785 0.498083 0.247638
669 1 0.870501 0.494823 0.248159
641 1 0.000751646 0.505284 0.247089
642 1 0.0688895 0.562912 0.243631
649 1 0.256272 0.499914 0.247429
654 1 0.443219 0.560961 0.250635
658 1 0.570069 0.558098 0.245365
662 1 0.686094 0.557038 0.249826
646 1 0.193896 0.566286 0.247249
650 1 0.319478 0.560031 0.253458
666 1 0.812196 0.566669 0.258307
670 1 0.934042 0.564674 0.253472
673 1 0.999382 0.626059 0.257593
677 1 0.123339 0.628416 0.25421
681 1 0.255998 0.629512 0.251401
685 1 0.383209 0.613015 0.256207
689 1 0.501847 0.618866 0.245573
693 1 0.630341 0.616829 0.251095
697 1 0.743474 0.621285 0.239878
701 1 0.871986 0.629507 0.258704
674 1 0.060203 0.691271 0.24468
678 1 0.196024 0.681303 0.243743
682 1 0.320953 0.683333 0.247111
686 1 0.435777 0.677319 0.249925
690 1 0.564645 0.681657 0.24587
694 1 0.682899 0.679272 0.247153
698 1 0.812211 0.686249 0.255187
702 1 0.939353 0.695878 0.256906
705 1 0.995513 0.755354 0.251906
709 1 0.132443 0.728985 0.255512
713 1 0.247353 0.746434 0.260067
717 1 0.382827 0.743003 0.252616
721 1 0.497002 0.751673 0.247779
725 1 0.627712 0.7429 0.25813
729 1 0.737746 0.74429 0.260685
733 1 0.874503 0.75716 0.257739
706 1 0.0629365 0.806667 0.255023
710 1 0.187036 0.809108 0.249946
714 1 0.31603 0.819377 0.25442
718 1 0.43456 0.809673 0.254231
722 1 0.567669 0.796631 0.250336
726 1 0.684212 0.806641 0.262616
730 1 0.801936 0.81374 0.256847
734 1 0.93966 0.817017 0.258652
741 1 0.121479 0.866892 0.255572
745 1 0.254105 0.878144 0.247306
749 1 0.366036 0.883399 0.249192
753 1 0.495913 0.86622 0.249025
757 1 0.621799 0.858301 0.249126
761 1 0.744226 0.875625 0.253172
765 1 0.873193 0.876755 0.246892
737 1 0.994067 0.882245 0.247843
738 1 0.0583578 0.934896 0.254612
742 1 0.175693 0.93838 0.252297
746 1 0.305928 0.942765 0.241886
750 1 0.438979 0.9459 0.247018
754 1 0.560597 0.926548 0.238827
758 1 0.68125 0.939279 0.248454
762 1 0.816365 0.936334 0.24401
766 1 0.939717 0.940141 0.247815
513 1 1.00212 0.00351753 0.248124
521 1 0.23563 1.0012 0.240598
525 1 0.367015 0.0131925 0.235115
533 1 0.612506 0.992696 0.249786
537 1 0.748381 0.00431052 0.24553
541 1 0.857833 0.00702853 0.251252
516 1 0.00736399 0.0627306 0.313716
527 1 0.438485 0.00730366 0.308248
531 1 0.566536 1.00256 0.318568
543 1 0.944014 0.0165233 0.309072
520 1 0.122975 0.0566063 0.303208
524 1 0.244841 0.0636021 0.308434
528 1 0.371824 0.055611 0.306472
532 1 0.5004 0.0687075 0.310937
536 1 0.623624 0.0617259 0.323439
540 1 0.736034 0.0523611 0.313171
544 1 0.868996 0.0585785 0.314963
547 1 0.0698894 0.132276 0.31169
551 1 0.18406 0.117356 0.311042
555 1 0.306027 0.128753 0.307144
559 1 0.437432 0.124534 0.307603
563 1 0.560427 0.121148 0.321533
567 1 0.684657 0.118876 0.316115
571 1 0.812716 0.12772 0.32057
575 1 0.934089 0.126322 0.317699
552 1 0.12946 0.18289 0.302289
556 1 0.250263 0.183828 0.304331
560 1 0.373792 0.185583 0.307882
564 1 0.504633 0.184446 0.306508
568 1 0.619493 0.18945 0.311703
572 1 0.750849 0.186345 0.320714
576 1 0.882452 0.193113 0.311771
548 1 0.00601085 0.179822 0.316462
579 1 0.0726535 0.252644 0.318441
583 1 0.18031 0.25246 0.307642
587 1 0.322156 0.249442 0.300297
591 1 0.43798 0.241015 0.303703
595 1 0.563506 0.255287 0.308282
599 1 0.692201 0.256197 0.314531
603 1 0.81188 0.253845 0.32212
607 1 0.946884 0.246625 0.301494
584 1 0.123845 0.328924 0.310585
588 1 0.240654 0.305811 0.293704
592 1 0.377883 0.30967 0.302255
596 1 0.499207 0.310561 0.305624
600 1 0.627197 0.317058 0.306251
604 1 0.754988 0.315052 0.31322
608 1 0.883485 0.309908 0.30865
580 1 0.00773675 0.309874 0.311264
611 1 0.0599259 0.372039 0.320258
615 1 0.193145 0.378662 0.304115
619 1 0.305854 0.372401 0.309294
623 1 0.439497 0.369791 0.315842
627 1 0.559024 0.36726 0.319249
631 1 0.696985 0.376254 0.315908
635 1 0.820816 0.371131 0.306358
639 1 0.938682 0.37114 0.30784
620 1 0.253512 0.438122 0.305394
624 1 0.376378 0.439246 0.310986
632 1 0.635142 0.433674 0.308853
636 1 0.766467 0.450115 0.315323
640 1 0.864095 0.437754 0.316486
612 1 0.00472206 0.436245 0.313746
643 1 0.0495995 0.505155 0.312173
616 1 0.11883 0.442039 0.314986
628 1 0.494798 0.427124 0.313392
659 1 0.560305 0.496568 0.316563
663 1 0.692762 0.492756 0.322763
667 1 0.822044 0.509218 0.321067
647 1 0.191306 0.502716 0.300955
651 1 0.31206 0.497473 0.323148
655 1 0.435907 0.492686 0.314611
660 1 0.499888 0.555379 0.311983
671 1 0.930139 0.505076 0.313912
644 1 0.998575 0.568798 0.317857
648 1 0.120128 0.56548 0.307175
652 1 0.249211 0.568914 0.306483
656 1 0.379095 0.559971 0.321575
664 1 0.635004 0.564914 0.319235
668 1 0.744695 0.554792 0.312391
672 1 0.883067 0.571386 0.314092
675 1 0.0612272 0.619334 0.313243
679 1 0.191207 0.631956 0.314116
683 1 0.320881 0.616764 0.314326
687 1 0.443456 0.61979 0.31078
691 1 0.563404 0.608211 0.307325
695 1 0.684586 0.631833 0.315227
699 1 0.807198 0.622683 0.325038
703 1 0.935047 0.639661 0.313558
676 1 0.00518383 0.691954 0.315347
680 1 0.12267 0.683693 0.318515
684 1 0.259088 0.684166 0.313922
688 1 0.38116 0.68236 0.309383
692 1 0.500915 0.675115 0.30162
696 1 0.617227 0.679966 0.318868
700 1 0.752807 0.681043 0.316946
704 1 0.867039 0.687316 0.31861
707 1 0.0682616 0.746033 0.314484
711 1 0.189945 0.744334 0.321654
715 1 0.315806 0.747445 0.307682
719 1 0.439171 0.753457 0.313978
723 1 0.565585 0.745632 0.321293
727 1 0.676146 0.743744 0.324911
731 1 0.818347 0.753349 0.321809
735 1 0.928606 0.748847 0.321403
708 1 0.00537811 0.810406 0.309269
712 1 0.122702 0.81411 0.318512
716 1 0.248139 0.815704 0.309321
720 1 0.37475 0.806067 0.310735
724 1 0.492288 0.815891 0.31435
728 1 0.624131 0.804009 0.318006
732 1 0.746277 0.807102 0.319435
736 1 0.866307 0.819532 0.308173
739 1 0.0637416 0.86966 0.316151
743 1 0.186549 0.877303 0.305968
747 1 0.313927 0.886201 0.314393
751 1 0.430386 0.870374 0.306117
755 1 0.559409 0.867499 0.301445
759 1 0.670912 0.876083 0.3186
763 1 0.81088 0.878863 0.310611
767 1 0.939135 0.878147 0.311287
744 1 0.123684 0.941295 0.314935
748 1 0.253866 0.938251 0.303675
752 1 0.377005 0.938169 0.310087
756 1 0.496257 0.926141 0.308497
764 1 0.748754 0.936276 0.306792
740 1 0.991845 0.950437 0.318978
515 1 0.062083 1.00126 0.307448
519 1 0.191561 0.00338042 0.30958
523 1 0.312653 1.00036 0.307562
760 1 0.611468 0.930814 0.315599
535 1 0.669012 0.989869 0.318284
539 1 0.801755 0.999027 0.311612
768 1 0.878472 0.934793 0.307357
773 1 0.124456 0.00649345 0.365861
777 1 0.256208 0.992287 0.369349
781 1 0.374983 -0.000197373 0.371016
785 1 0.499475 0.994648 0.369787
789 1 0.624567 -0.000549583 0.382285
793 1 0.748862 0.998938 0.380755
797 1 0.878835 0.998672 0.366582
770 1 0.0656058 0.0641741 0.367446
774 1 0.191039 0.0576303 0.372804
778 1 0.315546 0.0712835 0.369723
782 1 0.438927 0.061532 0.370339
786 1 0.5568 0.0559837 0.376774
790 1 0.687869 0.064913 0.37818
794 1 0.810788 0.053955 0.370843
798 1 0.939567 0.0649267 0.379114
805 1 0.118526 0.118715 0.374571
809 1 0.2483 0.116809 0.367131
813 1 0.376831 0.127393 0.373732
817 1 0.499098 0.128485 0.375555
821 1 0.63414 0.127724 0.373718
825 1 0.751681 0.124646 0.37768
829 1 0.876581 0.128332 0.3779
801 1 0.996601 0.125262 0.380804
802 1 0.0623978 0.186696 0.377173
806 1 0.185677 0.195421 0.365825
810 1 0.317674 0.189559 0.374498
814 1 0.44119 0.191339 0.373274
818 1 0.565021 0.191505 0.377521
822 1 0.681338 0.197728 0.369449
826 1 0.808407 0.191069 0.376592
830 1 0.935235 0.189144 0.374142
837 1 0.122252 0.253305 0.382223
841 1 0.249857 0.247231 0.35248
845 1 0.373177 0.248925 0.36993
849 1 0.513193 0.251886 0.374125
853 1 0.628436 0.261795 0.368802
857 1 0.747253 0.251924 0.378124
861 1 0.882684 0.247064 0.376534
833 1 -0.0065568 0.247051 0.368371
834 1 0.0584817 0.310699 0.381295
838 1 0.190994 0.318613 0.375909
842 1 0.305394 0.308886 0.364727
846 1 0.441154 0.304502 0.367889
850 1 0.570688 0.319933 0.387379
854 1 0.689143 0.321176 0.376099
858 1 0.808433 0.312047 0.380742
862 1 0.935024 0.311245 0.37812
865 1 0.999612 0.370719 0.373686
869 1 0.12607 0.375268 0.379102
873 1 0.251676 0.37989 0.372698
877 1 0.373656 0.362189 0.360969
881 1 0.498294 0.371955 0.375074
885 1 0.619924 0.384085 0.373603
889 1 0.759744 0.376031 0.376967
893 1 0.873134 0.366547 0.367363
866 1 0.0571647 0.435571 0.384697
870 1 0.178115 0.442256 0.373333
874 1 0.324007 0.427571 0.374829
882 1 0.556522 0.436272 0.373506
886 1 0.68928 0.431698 0.381442
890 1 0.819648 0.432009 0.386408
894 1 0.930693 0.436118 0.378864
897 1 0.997381 0.499385 0.37656
905 1 0.248585 0.49062 0.380414
878 1 0.431664 0.427444 0.37391
921 1 0.752406 0.491175 0.383664
901 1 0.114129 0.497939 0.372793
909 1 0.372005 0.495384 0.378434
913 1 0.49738 0.490852 0.374587
917 1 0.625525 0.490466 0.375777
925 1 0.871637 0.494747 0.385734
898 1 0.056933 0.566183 0.377557
902 1 0.184131 0.55989 0.369437
906 1 0.317641 0.564673 0.374614
910 1 0.435952 0.54751 0.378458
914 1 0.55891 0.557819 0.368479
918 1 0.689597 0.556061 0.38002
922 1 0.805224 0.563364 0.390909
926 1 0.932849 0.563066 0.384894
933 1 0.125347 0.615283 0.369119
937 1 0.262481 0.630628 0.376966
941 1 0.387646 0.628798 0.372867
945 1 0.492407 0.611316 0.373194
949 1 0.618704 0.62524 0.376997
953 1 0.745357 0.62032 0.378305
957 1 0.87379 0.622376 0.375898
929 1 0.994938 0.637341 0.377354
930 1 0.0606312 0.68326 0.374894
934 1 0.189298 0.689326 0.378771
938 1 0.32488 0.684897 0.371698
942 1 0.441587 0.683186 0.379929
946 1 0.552388 0.683779 0.375958
950 1 0.686193 0.683865 0.379212
954 1 0.815134 0.686478 0.380732
958 1 0.928848 0.689765 0.379019
965 1 0.130251 0.745837 0.372479
969 1 0.258412 0.748909 0.368829
973 1 0.381185 0.743327 0.366671
977 1 0.497657 0.750256 0.371203
985 1 0.736693 0.750043 0.381232
989 1 0.872132 0.75581 0.390144
961 1 0.00146102 0.751344 0.372103
962 1 0.0616973 0.812331 0.372666
966 1 0.184599 0.810929 0.375913
970 1 0.312305 0.816986 0.365905
974 1 0.436031 0.811811 0.371871
978 1 0.557695 0.816164 0.365825
982 1 0.689427 0.819176 0.386005
986 1 0.812384 0.818578 0.371597
990 1 0.9324 0.824466 0.371942
997 1 0.129887 0.880864 0.371048
1001 1 0.246846 0.882697 0.365704
1005 1 0.374801 0.868887 0.366191
1009 1 0.492759 0.877584 0.375261
1013 1 0.616701 0.872516 0.380265
1017 1 0.747986 0.885693 0.372918
1021 1 0.875923 0.881894 0.370758
993 1 0.998883 0.877053 0.371236
994 1 0.0554432 0.947741 0.370837
998 1 0.19012 0.945891 0.373122
1014 1 0.685051 0.937876 0.38136
1018 1 0.815388 0.935214 0.374875
1022 1 0.933824 0.942285 0.380062
1002 1 0.325684 0.933645 0.381608
1006 1 0.432656 0.937614 0.373881
1010 1 0.557242 0.931705 0.377074
769 1 0.000648006 0.0101478 0.38295
775 1 0.175853 0.00350919 0.431388
779 1 0.308822 0.0101097 0.425457
783 1 0.43411 9.21112e-05 0.429571
787 1 0.568992 0.0105439 0.442701
791 1 0.688308 0.00205946 0.44471
795 1 0.80834 0.000420231 0.442656
799 1 0.940588 0.00699848 0.440289
772 1 0.000223622 0.0653803 0.446818
776 1 0.118826 0.0601797 0.436357
780 1 0.242342 0.0684085 0.435116
784 1 0.375317 0.065802 0.432821
788 1 0.501837 0.0664886 0.444648
796 1 0.747481 0.064726 0.438149
800 1 0.874531 0.0573202 0.431657
803 1 0.0587091 0.119856 0.429304
807 1 0.186832 0.134157 0.423369
811 1 0.310984 0.130048 0.42542
815 1 0.4391 0.11927 0.428626
819 1 0.562423 0.128248 0.433177
823 1 0.689352 0.120814 0.436652
827 1 0.814562 0.131607 0.446533
831 1 0.930147 0.133911 0.441641
808 1 0.116617 0.184607 0.446511
812 1 0.247263 0.19166 0.418435
816 1 0.380692 0.187496 0.431179
820 1 0.50162 0.188177 0.428686
828 1 0.750386 0.183548 0.44025
832 1 0.86853 0.197889 0.44038
804 1 1.00193 0.180837 0.438943
835 1 0.0485975 0.246089 0.437425
839 1 0.18659 0.248718 0.431961
843 1 0.314542 0.247767 0.43139
847 1 0.448666 0.249438 0.42989
851 1 0.568577 0.250075 0.440457
855 1 0.691988 0.246481 0.439052
859 1 0.809923 0.257878 0.441155
863 1 0.936312 0.258056 0.435759
836 1 0.998061 0.308836 0.439406
840 1 0.124017 0.316748 0.442605
844 1 0.245003 0.317384 0.438844
848 1 0.377126 0.301837 0.431403
852 1 0.503205 0.31185 0.440905
860 1 0.743815 0.313645 0.445623
864 1 0.875659 0.316335 0.434245
867 1 0.0674787 0.376541 0.440209
871 1 0.184071 0.387657 0.43502
875 1 0.31804 0.367268 0.431841
879 1 0.438039 0.359906 0.43207
883 1 0.559078 0.378272 0.441532
891 1 0.813102 0.369108 0.442261
895 1 0.939806 0.373414 0.442078
872 1 0.122585 0.441643 0.434968
876 1 0.259051 0.43091 0.434305
880 1 0.373263 0.429264 0.440794
884 1 0.495714 0.432028 0.436195
892 1 0.753412 0.429709 0.444445
896 1 0.878532 0.434486 0.446447
868 1 0.993128 0.438189 0.445813
899 1 0.0579157 0.506062 0.433086
903 1 0.18513 0.490491 0.442349
907 1 0.317016 0.496247 0.441372
888 1 0.629139 0.433196 0.440412
908 1 0.248604 0.561728 0.424762
915 1 0.573753 0.493517 0.437759
919 1 0.684328 0.502492 0.445646
923 1 0.809846 0.495702 0.444327
927 1 0.940516 0.498739 0.437749
904 1 0.121718 0.561905 0.431005
912 1 0.374398 0.558256 0.436056
916 1 0.502564 0.567005 0.438051
920 1 0.623264 0.565823 0.438405
928 1 0.869899 0.564623 0.447416
900 1 0.998915 0.559527 0.438102
931 1 0.066191 0.619696 0.438109