ITEM: TIMESTEP
100000
ITEM: NUMBER OF ATOMS
2048
ITEM: BOX BOUNDS pp pp pp
0.0000000000000000e+00 1.2699208415745595e+01
0.0000000000000000e+00 1.2699208415745595e+01
0.0000000000000000e+00 1.2699208415745595e+01
ITEM: ATOMS id type xs ys zs
1210 1 0.206419 0.0350646 0.144743
42 1 0.209382 0.0588652 0.0721266
93 1 0.13999 0.111222 0.0617537
97 1 0.132459 0.21434 0.239834
35 1 0.0252959 0.129815 0.213968
944 1 0.259634 0.187097 0.132182
1762 1 0.305887 0.0338744 0.160318
403 1 0.257402 0.180338 0.0382764
1601 1 0.173666 0.205735 0.000259604
1825 1 0.196639 0.165323 0.19598
1411 1 0.212727 0.117031 0.124815
1792 1 0.278465 0.0891276 0.0921661
291 1 0.307295 0.239733 0.0460475
808 1 0.143454 0.0845945 0.14077
525 1 0.254919 0.0201822 0.0171832
674 1 0.0109136 0.159876 0.0588257
401 1 0.216558 0.224964 0.0782715
637 1 0.0866086 0.164749 0.0414471
1120 1 0.122617 0.24112 0.0718412
1351 1 0.109144 0.189299 0.165147
1629 1 0.0803142 0.124819 0.112473
1551 1 0.278938 0.0126054 0.0902182
1470 1 0.0575951 0.00638281 0.144677
730 1 0.0525798 0.0779619 0.168115
1517 1 0.0449528 0.242586 0.042392
341 1 0.184552 0.0356069 0.226563
1310 1 0.0360046 0.208743 0.115725
1429 1 0.0468362 0.102542 0.0051817
1823 1 0.0990379 0.0492018 0.0050026
230 1 0.172503 0.235947 0.167845
495 1 0.165604 0.179494 0.108209
1073 1 0.207711 0.127488 0.0189729
1873 1 0.177154 0.00824921 0.0115234
1891 1 0.116126 0.127002 0.206872
1266 1 0.230538 0.0942924 0.206319
769 1 0.0876232 0.0423842 0.0877339
1019 1 0.101241 0.0232048 0.222878
1662 1 0.0347621 0.0035429 0.0351607
114 1 0.331344 0.176779 0.0919595
1540 1 0.217273 0.238098 0.243441
1717 1 0.332825 0.130517 0.0274897
1727 1 0.288044 0.163097 0.218896
1701 1 0.0217939 0.0111487 0.210309
29 1 0.000687352 0.0956338 0.0972573
606 1 0.330061 0.234318 0.142887
340 1 0.0179506 0.21417 0.246159
912 1 0.0739658 0.145075 0.273352
1620 1 0.119525 0.0279812 0.336321
1866 1 0.141027 0.107297 0.343193
1340 1 0.278122 0.0676291 0.258014
302 1 0.116486 0.0314267 0.49241
893 1 0.0513729 0.0659633 0.272688
1387 1 0.166454 0.141239 0.277806
488 1 0.176853 0.234564 0.332745
342 1 0.179449 0.178549 0.39499
1937 1 0.188168 0.020493 0.382649
142 1 0.0938314 0.235921 0.376545
38 1 0.227235 0.115568 0.362947
252 1 0.291135 0.120261 0.310731
1279 1 0.0127178 0.136792 0.491339
919 1 0.181905 0.10363 0.433853
1008 1 0.0227427 0.0919496 0.42999
1121 1 0.30595 0.0728871 0.402485
27 1 0.129701 0.0749332 0.271385
18 1 0.0115964 0.208885 0.323252
1400 1 0.260991 0.189194 0.3726
1941 1 0.229273 0.216618 0.452333
1264 1 0.143917 0.20743 0.493931
822 1 0.0942465 0.0985308 0.460458
436 1 0.23972 0.0593113 0.442842
986 1 0.258106 0.134093 0.442735
965 1 0.323983 0.199396 0.310671
430 1 0.196692 0.0423902 0.303411
217 1 0.0474804 0.144231 0.361672
131 1 0.108135 0.150011 0.405568
400 1 0.241561 0.173921 0.292005
1463 1 0.262255 0.0355406 0.355643
834 1 0.00859921 0.0753237 0.343489
11 1 0.0242493 0.182424 0.420866
1474 1 0.0616618 0.193003 0.486744
1624 1 0.113619 0.179866 0.328346
873 1 0.0865038 0.0681463 0.387564
1958 1 0.0817119 0.240556 0.296854
1245 1 0.331359 0.0787072 0.480104
844 1 0.332554 0.154821 0.442544
1133 1 0.329475 0.00445923 0.379439
950 1 0.107518 0.000825595 0.415316
1467 1 0.29581 0.193806 0.492652
595 1 0.152666 0.0359429 0.704889
1886 1 0.110266 0.0309133 0.644705
766 1 0.221182 0.183071 0.61848
1824 1 0.294182 0.0104788 0.522707
1154 1 0.0246632 0.0774827 0.59361
584 1 0.104048 0.0352287 0.567204
903 1 0.330033 0.0635985 0.654598
1140 1 0.263565 0.0903729 0.506727
1776 1 0.0685048 0.0617242 0.743253
1208 1 0.0581456 0.194619 0.572153
1799 1 0.194849 0.22781 0.737848
170 1 0.10245 0.10111 0.685801
1289 1 0.182647 0.151327 0.693187
138 1 0.223081 0.0232493 0.666048
1649 1 0.175544 0.0102389 0.604961
553 1 0.25247 0.0978035 0.658109
1623 1 0.0955949 0.112479 0.6054
1577 1 0.304623 0.074213 0.732082
1342 1 0.124957 0.190358 0.74757
1368 1 0.199862 0.0818025 0.738606
1050 1 0.209189 0.176213 0.511954
2021 1 0.0342136 0.0642489 0.51201
30 1 0.295359 0.210102 0.653102
89 1 0.0355246 0.00669609 0.667032
1548 1 0.0933929 0.238987 0.620324
1006 1 0.317052 0.000410606 0.692663
1407 1 0.0217634 0.126592 0.662736
1987 1 0.243562 0.0797524 0.581505
1242 1 0.273903 0.150168 0.57182
704 1 0.015198 0.228266 0.6278
1325 1 0.0863016 0.129691 0.528462
348 1 0.186577 0.0647429 0.50565
1563 1 0.00215446 0.243687 0.534349
1665 1 0.180019 0.117125 0.562655
1558 1 0.26381 0.164888 0.733598
836 1 0.169332 0.0837909 0.63873
947 1 0.141387 0.185991 0.586984
1636 1 0.101463 0.174118 0.671301
1671 1 0.270067 0.0120712 0.599853
1037 1 0.166262 0.221039 0.657943
352 1 0.0587172 0.151838 0.756351
629 1 0.141395 0.0330161 0.789445
1015 1 0.247428 0.234956 0.873001
1679 1 0.230786 0.0891155 0.808791
1634 1 0.127955 0.108699 0.755344
329 1 0.313181 0.189216 0.987251
571 1 0.0443822 0.0157325 0.816911
117 1 0.0548147 0.211939 0.907688
850 1 0.167899 0.208611 0.827003
1370 1 0.27385 0.120348 0.890553
1940 1 0.239116 0.166112 0.937839
1795 1 0.0445065 0.228636 0.75773
1461 1 0.199615 0.0941171 0.889907
841 1 0.136664 0.0433134 0.864694
1487 1 0.304337 0.123554 0.790567
206 1 0.156472 0.105806 0.825399
1829 1 0.310741 0.224575 0.751028
555 1 0.0608207 0.151099 0.949969
821 1 0.245777 0.0590755 0.934273
1617 1 0.259214 0.200358 0.803682
589 1 0.180368 0.0702586 0.965053
1181 1 0.00875342 0.0912176 0.785661
774 1 0.195943 0.158483 0.776986
574 1 0.139981 0.142343 0.985738
1404 1 0.0730927 0.103208 0.833637
1401 1 0.0316271 0.0784855 0.902142
1849 1 0.272906 0.116293 0.982223
1697 1 0.101144 0.0821386 0.92932
272 1 0.296717 0.0594813 0.853578
1773 1 0.0249695 0.0221848 0.95451
960 1 0.130338 0.183197 0.908213
943 1 0.250142 0.0252331 0.76276
2038 1 0.110847 0.247036 0.985618
512 1 0.219946 0.164669 0.85756
1058 1 0.0150129 0.147776 0.87851
681 1 0.216385 0.0250507 0.8482
724 1 0.0883812 0.179522 0.84204
234 1 0.324698 0.174982 0.851872
308 1 0.0139415 0.179002 0.810104
273 1 0.279163 0.241872 0.938446
586 1 0.332827 0.0635163 0.983203
1209 1 0.316247 0.00309966 0.800535
2028 1 0.0767602 0.00300092 0.889914
921 1 0.0777299 0.256747 0.214193
811 1 0.0797397 0.380581 0.0643271
1931 1 0.219984 0.467237 0.151858
727 1 0.0795501 0.465566 0.093559
824 1 0.0786871 0.271776 0.124535
1569 1 0.29471 0.396286 0.0383954
1995 1 0.250242 0.308319 0.231726
1514 1 0.220741 0.430931 0.0234405
1900 1 0.0312406 0.314383 0.0762234
1751 1 0.0747071 0.474134 0.173415
1532 1 0.140309 0.319286 0.07321
1881 1 0.204954 0.291894 0.130969
1238 1 0.233226 0.499973 0.0781115
874 1 0.0298882 0.43639 0.0422163
559 1 0.208099 0.362977 0.161116
1661 1 0.166139 0.419589 0.197284
1372 1 0.124288 0.332811 0.144903
642 1 0.221007 0.469916 0.22931
560 1 0.11077 0.406127 0.144758
9 1 0.0420263 0.386218 0.207488
1574 1 0.026564 0.394593 0.127044
285 1 0.253563 0.390159 0.106203
530 1 0.0124158 0.482763 0.133013
128 1 0.310391 0.326961 0.0141346
519 1 0.121955 0.362156 0.220511
422 1 0.325058 0.451015 0.0895773
990 1 0.296982 0.458364 0.168643
462 1 0.23783 0.325933 0.0658952
412 1 0.0429025 0.326442 0.164052
1911 1 0.295207 0.374008 0.18397
1275 1 0.121463 0.428058 0.0164585
1194 1 0.160725 0.390551 0.0852206
331 1 0.169336 0.305348 0.197648
1213 1 0.233344 0.382319 0.234988
373 1 0.150358 0.494515 0.196172
508 1 0.175284 0.493783 0.0172485
1922 1 0.278671 0.316271 0.129465
523 1 0.15982 0.482846 0.0949788
1737 1 0.074772 0.320266 0.0174983
1798 1 0.260392 0.254632 0.171949
15 1 0.10324 0.440204 0.236733
353 1 0.194523 0.281574 0.0121222
1149 1 0.00857842 0.288427 0.303748
120 1 0.219256 0.45822 0.486191
1199 1 0.308213 0.257637 0.371684
827 1 0.190956 0.353135 0.307016
1332 1 0.202435 0.440554 0.412075
434 1 0.130002 0.406556 0.4412
66 1 0.109378 0.484018 0.316253
446 1 0.237396 0.394699 0.362295
1781 1 0.0286828 0.471231 0.29622
332 1 0.27567 0.328348 0.37485
1568 1 0.100442 0.313947 0.424796
887 1 0.234639 0.313665 0.454617
2018 1 0.311076 0.424827 0.392639
354 1 0.173331 0.436706 0.280938
211 1 0.150299 0.286205 0.276684
763 1 0.144995 0.302209 0.353952
1802 1 0.234142 0.287727 0.309863
1593 1 0.113434 0.388341 0.297956
1681 1 0.0721878 0.317036 0.263975
594 1 0.257699 0.387158 0.434966
2005 1 0.0124789 0.48278 0.383118
847 1 0.165159 0.292155 0.483281
549 1 0.278038 0.476037 0.445022
576 1 0.169752 0.345109 0.4174
746 1 0.0530335 0.377714 0.408808
1364 1 0.00276124 0.371962 0.285365
1448 1 0.285497 0.432515 0.268902
1226 1 0.245426 0.467338 0.322212
1616 1 0.146395 0.430924 0.3556
185 1 0.0279618 0.285211 0.469365
57 1 0.0468462 0.409193 0.335373
1187 1 0.0113989 0.476529 0.464215
1020 1 0.288345 0.254176 0.268841
1594 1 0.307875 0.332084 0.451051
837 1 0.062282 0.327934 0.340817
1042 1 0.0882516 0.453801 0.407946
1496 1 0.286519 0.364879 0.308507
1341 1 0.0863841 0.440683 0.492094
1055 1 0.146394 0.482464 0.482934
1930 1 0.235128 0.25892 0.389921
992 1 0.0200378 0.26433 0.383833
1955 1 0.0188929 0.359058 0.480104
101 1 0.305096 0.253091 0.444027
1820 1 0.160565 0.257666 0.412911
267 1 0.214758 0.351954 0.672698
952 1 0.225471 0.32058 0.577319
1920 1 0.1352 0.444538 0.565974
1571 1 0.276464 0.367827 0.512942
40 1 0.081289 0.481899 0.646997
1317 1 0.255969 0.394066 0.601544
537 1 0.145393 0.297474 0.635923
925 1 0.11231 0.260557 0.710135
1383 1 0.156233 0.371984 0.618178
127 1 0.256602 0.255404 0.705691
1626 1 0.034812 0.279969 0.681882
1465 1 0.230573 0.261926 0.63472
1719 1 0.0483757 0.4072 0.673239
65 1 0.192779 0.400238 0.723119
1420 1 0.139311 0.476652 0.727106
337 1 0.0831413 0.3895 0.592448
1056 1 0.270161 0.339528 0.733305
2029 1 0.100246 0.26667 0.523097
2020 1 0.284492 0.400676 0.671688
786 1 0.317318 0.318809 0.563183
1221 1 0.155434 0.490224 0.634023
320 1 0.149624 0.327514 0.550071
475 1 0.159408 0.255919 0.566168
1100 1 0.0672956 0.325883 0.626533
784 1 0.0782441 0.495637 0.569583
1018 1 0.0408018 0.332053 0.550812
1850 1 0.0112119 0.467179 0.611484
1945 1 0.20838 0.45363 0.571562
929 1 0.0334504 0.42845 0.546674
226 1 0.282946 0.316613 0.663366
1621 1 0.0293695 0.479505 0.706836
1815 1 0.186373 0.304771 0.740175
1021 1 0.287359 0.449315 0.529841
228 1 0.117347 0.341221 0.685829
151 1 0.00386982 0.384461 0.602575
883 1 0.270661 0.468138 0.648081
612 1 0.202548 0.430812 0.65458
1863 1 0.257223 0.263439 0.516558
614 1 0.130775 0.425037 0.667847
2 1 0.0465011 0.404465 0.745936
453 1 0.196566 0.377349 0.501467
974 1 0.103102 0.367046 0.5048
1230 1 0.252737 0.460575 0.824217
1014 1 0.189852 0.477624 0.887
1556 1 0.106893 0.302238 0.933425
1645 1 0.25658 0.40356 0.891531
1996 1 0.0630619 0.386274 0.97163
410 1 0.0582921 0.45436 0.929233
1012 1 0.211991 0.353512 0.997202
1302 1 0.211789 0.441963 0.948103
638 1 0.304378 0.387149 0.954326
183 1 0.104591 0.252655 0.789039
1130 1 0.120858 0.319493 0.829364
1354 1 0.281865 0.475027 0.971867
278 1 0.0328115 0.481851 0.856294
607 1 0.186151 0.281144 0.864116
480 1 0.292705 0.477497 0.897346
1308 1 0.140895 0.498399 0.801636
362 1 0.109895 0.48399 0.878404
1228 1 0.196487 0.334982 0.912262
1783 1 0.216057 0.35877 0.788188
902 1 0.0828892 0.495394 0.989701
1890 1 0.0909492 0.417605 0.840304
32 1 0.285755 0.39686 0.80604
1290 1 0.145034 0.476241 0.946053
793 1 0.128443 0.408652 0.765695
1550 1 0.141365 0.367819 0.976241
1170 1 0.262343 0.322715 0.952099
325 1 0.165162 0.252978 0.93377
143 1 0.243411 0.286915 0.788822
274 1 0.0358982 0.36952 0.895011
998 1 0.257982 0.32542 0.853935
1578 1 0.0717915 0.467328 0.779514
384 1 0.188099 0.396741 0.854212
222 1 0.0405478 0.275559 0.964212
1861 1 0.045045 0.363859 0.813553
1562 1 0.189813 0.436382 0.791047
413 1 0.121774 0.402558 0.911506
92 1 0.036771 0.264571 0.827869
1250 1 0.102751 0.255062 0.867474
1979 1 0.308721 0.260905 0.832223
761 1 0.0770262 0.32086 0.754123
529 1 0.267746 0.467401 0.749874
283 1 0.161509 0.709055 0.0564913
257 1 0.255558 0.620821 0.0529506
1760 1 0.163527 0.692505 0.17715
1644 1 0.281761 0.712952 0.174498
500 1 0.0532888 0.525454 0.0561679
671 1 0.132192 0.545756 0.0660857
1826 1 0.321509 0.600589 0.00829409
1897 1 0.087294 0.593421 0.103634
1591 1 0.210435 0.639949 0.229954
1378 1 0.0507634 0.604445 0.235417
1246 1 0.195743 0.546534 0.140596
229 1 0.24689 0.621707 0.138432
484 1 0.17731 0.629062 0.0691671
1903 1 0.21246 0.688896 0.117675
1724 1 0.0442874 0.711644 0.158765
1108 1 0.0492269 0.696869 0.0784693
882 1 0.325113 0.686301 0.02815
188 1 0.277012 0.684028 0.245439
516 1 0.296539 0.589745 0.195369
686 1 0.276583 0.558694 0.109756
452 1 0.061461 0.546183 0.187157
1658 1 0.0710622 0.724061 0.230338
1109 1 0.153516 0.610939 0.139072
506 1 0.0787784 0.633899 0.164097
1430 1 0.213668 0.72871 0.222986
1703 1 0.0157598 0.560324 0.127163
1010 1 0.114371 0.651142 0.0348707
706 1 0.131702 0.575647 0.199508
1271 1 0.031905 0.740805 0.0176741
1887 1 0.221041 0.557872 0.222337
5 1 0.105125 0.654689 0.230447
1450 1 0.116128 0.523594 0.136397
1985 1 0.29863 0.519006 0.0321736
1204 1 0.132313 0.735365 0.121062
1537 1 0.252693 0.715756 0.027049
150 1 0.30174 0.664578 0.102209
1811 1 0.0345123 0.591917 0.0205054
1500 1 0.00845641 0.64079 0.118336
1182 1 0.197963 0.569963 0.0133556
1581 1 0.202415 0.663254 0.00278066
660 1 0.286836 0.747337 0.0914966
435 1 0.292417 0.514592 0.234724
1576 1 0.0326847 0.586945 0.436364
1284 1 0.128861 0.577516 0.48487
1300 1 0.0644245 0.667383 0.382558
862 1 0.0151521 0.652441 0.495296
451 1 0.253287 0.602784 0.396418
1178 1 0.187471 0.512839 0.361681
803 1 0.312069 0.661821 0.358268
239 1 0.233967 0.680974 0.331412
256 1 0.203285 0.715278 0.479489
1561 1 0.0405397 0.736391 0.477581
622 1 0.292939 0.719103 0.468523
1001 1 0.25483 0.546424 0.29647
1233 1 0.244326 0.654525 0.45289
1026 1 0.156359 0.604282 0.275319
1699 1 0.0425963 0.548398 0.286466
503 1 0.144004 0.645712 0.348508
738 1 0.0302182 0.605494 0.330741
1848 1 0.0747118 0.523053 0.488177
1232 1 0.321032 0.645229 0.443694
1274 1 0.112753 0.561008 0.324395
260 1 0.0709414 0.5322 0.405658
732 1 0.172456 0.728953 0.353089
773 1 0.179818 0.517159 0.271192
1367 1 0.196267 0.529308 0.448517
192 1 0.0923228 0.65827 0.454676
357 1 0.273548 0.622271 0.30386
1206 1 0.127594 0.714966 0.416548
619 1 0.208962 0.595552 0.491012
1337 1 0.165975 0.683097 0.279366
1104 1 0.20068 0.581545 0.334544
909 1 0.244898 0.726459 0.404166
499 1 0.259419 0.523763 0.38688
1051 1 0.0902449 0.676014 0.304838
1166 1 0.142337 0.568054 0.403031
300 1 0.27164 0.558261 0.463376
1438 1 0.175377 0.650874 0.42539
179 1 0.324916 0.574394 0.272218
330 1 0.0940317 0.737742 0.349695
1299 1 0.0145128 0.692565 0.285434
251 1 0.326884 0.567892 0.352873
346 1 0.317062 0.513975 0.496719
1641 1 0.103579 0.521536 0.250822
978 1 0.203148 0.699044 0.699496
385 1 0.211556 0.634488 0.642051
1088 1 0.295007 0.526908 0.581096
187 1 0.130609 0.736465 0.553455
1441 1 0.318032 0.645533 0.652515
68 1 0.00876929 0.694496 0.565758
1046 1 0.221674 0.528149 0.612985
1413 1 0.268339 0.581592 0.665914
292 1 0.119029 0.639836 0.630492
849 1 0.202404 0.74698 0.630399
772 1 0.0981141 0.556343 0.61292
789 1 0.0662761 0.594911 0.544569
572 1 0.170293 0.589942 0.591644
1150 1 0.303773 0.721658 0.555269
1315 1 0.0456719 0.641542 0.606316
1882 1 0.25523 0.593081 0.59048
1155 1 0.021368 0.560695 0.687872
1163 1 0.000203821 0.539737 0.61421
288 1 0.056301 0.692049 0.671109
386 1 0.244601 0.519751 0.519183
2030 1 0.157726 0.576406 0.74299
135 1 0.267595 0.747545 0.684925
1249 1 0.101068 0.586857 0.68719
1608 1 0.166576 0.529261 0.542961
1102 1 0.17224 0.671692 0.587537
1217 1 0.0753164 0.636305 0.745839
59 1 0.0800022 0.679575 0.527389
399 1 0.225459 0.509204 0.690834
163 1 0.330032 0.506796 0.719615
498 1 0.132324 0.731071 0.651488
1685 1 0.302107 0.583943 0.526736
604 1 0.212818 0.734861 0.554303
678 1 0.255796 0.68969 0.612753
1440 1 0.242 0.655345 0.531722
1772 1 0.143419 0.647257 0.701413
1075 1 0.180483 0.567568 0.670226
1949 1 0.00607253 0.632563 0.686818
1939 1 0.0418008 0.728819 0.739599
703 1 0.164485 0.657645 0.514123
1489 1 0.00552525 0.528431 0.533433
667 1 0.0946945 0.533936 0.749595
136 1 0.249196 0.595498 0.746966
1587 1 0.279066 0.660199 0.965042
1880 1 0.195089 0.63047 0.925605
1775 1 0.103046 0.578215 0.992596
582 1 0.317789 0.655671 0.885762
1777 1 0.153131 0.692884 0.939419
1207 1 0.291917 0.537685 0.78215
184 1 0.0197086 0.531902 0.766741
440 1 0.319748 0.544117 0.855942
940 1 0.00588306 0.512889 0.926499
886 1 0.289369 0.639168 0.799665
1214 1 0.324157 0.730752 0.878525
1428 1 0.0810404 0.646682 0.967843
1263 1 0.211504 0.516878 0.767046
1135 1 0.148436 0.660404 0.858015
159 1 0.0176964 0.685377 0.965193
1778 1 0.159399 0.677087 0.782763
578 1 0.0785965 0.711649 0.899494
1110 1 0.265597 0.585298 0.945636
47 1 0.229396 0.519433 0.94583
1076 1 0.330178 0.546095 0.946554
1081 1 0.260113 0.606659 0.86671
1889 1 0.264836 0.742916 0.798674
58 1 0.0800264 0.532166 0.826915
1983 1 0.0181699 0.663876 0.781564
1771 1 0.166993 0.548379 0.861931
518 1 0.249215 0.684446 0.857399
37 1 0.00730858 0.741234 0.908484
169 1 0.200277 0.608238 0.806413
1336 1 0.23499 0.670076 0.762835
1565 1 0.12286 0.601384 0.804898
1521 1 0.108862 0.725582 0.990327
1267 1 0.0147756 0.612056 0.941511
19 1 0.0842139 0.674332 0.819706
691 1 0.080836 0.53419 0.925877
20 1 0.233655 0.716942 0.93335
778 1 0.0380148 0.612487 0.852021
1159 1 0.131215 0.737192 0.831615
310 1 0.102085 0.610699 0.90418
1190 1 0.248724 0.53075 0.847257
1165 1 0.155823 0.561 0.935397
640 1 0.3129 0.700135 0.756099
182 1 0.306256 0.866828 0.0213343
1053 1 0.0397651 0.933767 0.240141
1892 1 0.104504 0.769832 0.0490112
1348 1 0.225765 0.838958 0.147007
890 1 0.0514175 0.770558 0.106793
194 1 0.136459 0.875439 0.077473
1680 1 0.114755 0.982479 0.0463656
1843 1 0.296396 0.778988 0.242969
540 1 0.275762 0.940338 0.0422969
1298 1 0.278163 0.829038 0.081674
115 1 0.0661181 0.841041 0.0902803
1711 1 0.19597 0.773232 0.0799369
173 1 0.160919 0.917848 0.132238
1074 1 0.143035 0.789557 0.212862
87 1 0.225751 0.764516 0.151755
819 1 0.260645 0.803438 0.0148313
866 1 0.075181 0.799052 0.178481
99 1 0.0414577 0.813219 0.0252268
1080 1 0.00662562 0.957077 0.0879895
649 1 0.0867325 0.932045 0.100593
520 1 0.252185 1.00082 0.24487
620 1 0.212889 0.876046 0.081295
1009 1 0.196453 0.974448 0.082637
723 1 0.245145 0.926735 0.21154
424 1 0.153232 0.811875 0.132649
699 1 0.0433559 0.86939 0.202748
1954 1 0.111575 0.868921 0.159888
456 1 0.113335 0.853555 0.239839
237 1 0.172634 0.890274 0.202784
1276 1 0.323985 0.775586 0.168401
84 1 0.174031 0.76143 0.000518552
1427 1 0.185687 0.963936 0.192339
1678 1 0.13038 0.989181 0.122861
1138 1 0.242257 0.969555 0.14255
1744 1 0.255591 0.853405 0.221956
845 1 0.0938372 0.942804 0.174458
1807 1 0.0847029 0.881761 0.0244878
1957 1 0.27153 0.89346 0.125362
1189 1 0.308368 0.946895 0.166902
125 1 0.0156491 0.936583 0.162666
54 1 0.172789 0.834078 0.0257346
155 1 0.0145426 0.911995 0.0180192
1842 1 0.168084 0.920576 0.0118177
1557 1 0.331816 0.761155 0.0144869
2043 1 0.211134 0.948553 0.29104
597 1 0.111234 0.863347 0.399816
860 1 0.202572 0.996286 0.455753
1366 1 0.15375 0.935652 0.410675
610 1 0.0809211 0.931601 0.370339
1067 1 0.0143367 0.917418 0.330469
243 1 0.0845038 0.778555 0.41718
356 1 0.0123092 0.931079 0.474001
41 1 0.248151 0.937245 0.480549
1841 1 0.0381221 0.99872 0.364887
581 1 0.049634 0.80179 0.256302
48 1 0.0293016 0.874177 0.406359
359 1 0.0167845 0.757715 0.330115
1733 1 0.213444 0.812712 0.452198
312 1 0.0522185 0.830009 0.469963
1586 1 0.282754 0.995064 0.443958
336 1 0.0123176 0.75647 0.407305
737 1 0.134598 0.823693 0.315446
286 1 0.130075 0.749384 0.282482
8 1 0.146871 0.954686 0.331146
658 1 0.0849608 0.884968 0.307954
404 1 0.262397 0.904108 0.335774
6 1 0.126285 0.834131 0.484429
55 1 0.228144 0.953122 0.389677
344 1 0.067359 0.985201 0.295
575 1 0.28676 0.973046 0.316876
949 1 0.303991 0.921846 0.414006
1469 1 0.315838 0.847425 0.367578
590 1 0.0993728 0.923165 0.462665
1358 1 0.324874 0.925238 0.258555
326 1 0.226476 0.884188 0.435242
1098 1 0.189004 0.87169 0.284746
1345 1 0.245755 0.794005 0.344745
1503 1 0.0623642 0.819067 0.356887
577 1 0.167298 0.783725 0.399715
470 1 0.129015 0.929186 0.253926
1449 1 0.184252 0.876587 0.370313
985 1 0.314161 0.767117 0.393332
1981 1 0.284415 0.826508 0.437299
1878 1 0.170288 0.899058 0.483317
1339 1 0.218635 0.7916 0.271907
1814 1 0.293154 0.848479 0.290235
264 1 0.115439 0.753165 0.482218
2032 1 0.327446 0.95244 0.485787
24 1 0.312645 0.750721 0.307174
1293 1 0.0646466 0.917673 0.537939
522 1 0.117888 0.798638 0.613198
130 1 0.00618153 0.99042 0.739729
1086 1 0.122788 0.863635 0.559602
1836 1 0.156803 0.955982 0.702782
10 1 0.216879 0.989021 0.53089
313 1 0.115084 0.755582 0.733942
1462 1 0.306895 0.869352 0.542605
428 1 0.313564 0.945633 0.636333
240 1 0.11577 0.859608 0.664112
220 1 0.306562 0.762887 0.627195
482 1 0.303073 0.816032 0.684269
869 1 0.241118 0.807567 0.567876
687 1 0.27701 0.945493 0.55676
972 1 0.0552227 0.966866 0.599886
566 1 0.0279002 0.818972 0.585367
1305 1 0.332603 0.934811 0.735606
1393 1 0.0710134 0.91751 0.680266
493 1 0.0708665 0.818227 0.724276
504 1 0.278062 0.89275 0.684705
1951 1 0.16592 0.7999 0.539898
132 1 0.198378 0.919038 0.552167
126 1 0.239692 0.811552 0.649918
993 1 0.326149 0.798634 0.558371
196 1 0.269538 0.874856 0.608362
1492 1 0.251474 0.962547 0.717057
1195 1 0.209662 0.867826 0.701174
601 1 0.120992 0.8837 0.740433
139 1 0.232339 0.862983 0.505292
103 1 0.134379 0.962886 0.542178
1028 1 0.121846 0.938657 0.624582
708 1 0.073449 0.795368 0.529636
646 1 0.15704 0.797865 0.686292
1542 1 0.170438 0.876919 0.620186
1739 1 0.0590892 0.992081 0.523188
908 1 0.028555 0.781728 0.662079
1906 1 0.0537143 0.889346 0.613018
988 1 0.236482 0.948659 0.635075
1202 1 0.00171372 0.8487 0.707556
100 1 0.0854408 0.98461 0.736584
731 1 0.271924 0.786267 0.503604
867 1 0.059574 0.751793 0.595613
491 1 0.296478 0.913905 0.945639
53 1 0.125517 0.853621 0.961264
174 1 0.0666349 0.830636 0.878305
1686 1 0.317094 0.856361 0.760839
394 1 0.316217 0.774165 0.753604
2014 1 0.0922706 0.890838 0.832942
408 1 0.170435 0.803633 0.845238
631 1 0.133005 0.765228 0.916924
907 1 0.0441597 0.917332 0.778333
2023 1 0.266396 0.981697 0.888067
1603 1 0.173484 0.928855 0.776842
1864 1 0.230202 0.872501 1.00128
1504 1 0.189299 0.748642 0.758588
1143 1 0.163063 0.822266 0.763967
417 1 0.296164 0.91318 0.80448
203 1 0.116332 0.91611 0.914951
246 1 0.160218 0.875804 0.855315
1038 1 0.294377 0.756844 0.943944
1675 1 0.188577 0.902097 0.939004
1324 1 0.147098 0.988078 0.923267
541 1 0.0518321 0.883426 0.948053
1262 1 0.0989528 0.809891 0.814605
653 1 0.00152835 0.860664 0.800135
835 1 0.0430697 0.946463 0.852136
1436 1 0.0102951 0.796341 0.760837
515 1 0.237258 0.952516 0.965235
1963 1 0.248733 0.814309 0.854075
509 1 0.113681 0.975001 0.832063
2031 1 0.2434 0.963874 0.812332
1973 1 0.252976 0.820727 0.780198
1475 1 0.211836 0.792556 0.934007
1472 1 0.0682158 0.786368 0.957136
855 1 0.0858504 0.978362 0.973534
259 1 0.223601 0.888038 0.812057
1085 1 0.273028 0.835621 0.942772
1971 1 0.181867 0.948331 0.853594
1698 1 0.237884 0.89996 0.88245
528 1 0.0111451 0.885429 0.882732
1822 1 0.00644097 0.826904 0.929634
249 1 0.296018 0.996973 0.954679
1650 1 0.0448996 0.753578 0.842114
1124 1 0.41532 0.0771883 0.163752
677 1 0.531973 0.161667 0.0880908
321 1 0.392566 0.169742 0.00205945
201 1 0.382034 0.230158 0.0641902
759 1 0.449158 0.218125 0.0959074
1763 1 0.445304 0.0301977 0.215066
1513 1 0.615689 0.115921 0.00250077
1369 1 0.472335 0.11504 0.0815302
1381 1 0.534122 0.0257097 0.199834
745 1 0.474901 0.0547027 0.0285537
1868 1 0.533593 0.230911 0.0488602
216 1 0.557291 0.141089 0.158595
1769 1 0.607482 0.0797166 0.0684326
872 1 0.622941 0.121465 0.135132
1997 1 0.531273 0.0660465 0.0793263
76 1 0.499527 0.088799 0.160217
690 1 0.48748 0.221753 0.194505
1810 1 0.587896 0.00714722 0.126333
1695 1 0.416925 0.179558 0.233352
270 1 0.646113 0.00933151 0.0753766
1048 1 0.36139 0.14475 0.197986
1059 1 0.650028 0.154612 0.0656705
1412 1 0.344218 0.214038 0.219214
1099 1 0.543841 0.101995 0.22267
1693 1 0.455413 0.0414363 0.106373
279 1 0.415416 0.09669 0.23899
1670 1 0.603961 0.065474 0.192173
1523 1 0.407224 0.151289 0.0765171
1797 1 0.4772 0.140674 0.208868
210 1 0.399496 0.200166 0.152472
1068 1 0.611355 0.138074 0.238067
282 1 0.339368 0.102193 0.137298
3 1 0.548552 0.192041 0.230369
1547 1 0.601643 0.201079 0.116056
298 1 0.343504 0.0680977 0.219224
1083 1 0.363725 0.0697294 0.0669056
1758 1 0.492033 0.16057 0.015039
1787 1 0.452046 0.228601 0.0183461
1735 1 0.631697 0.187968 0.183521
1742 1 0.534834 -0.000272837 0.0321849
375 1 0.62781 0.229025 0.0481576
634 1 0.340557 0.00405432 0.0418206
721 1 0.599341 0.0371348 0.000373479
1082 1 0.355048 0.127142 0.27553
815 1 0.577076 0.0700294 0.306666
1375 1 0.423028 0.153988 0.40124
1112 1 0.47517 0.0452584 0.36565
593 1 0.484186 0.0684078 0.278377
1888 1 0.520169 0.000845598 0.413407
333 1 0.370223 0.00839137 0.442532
1494 1 0.610019 0.21331 0.277204
205 1 0.577816 0.226897 0.411083
702 1 0.401464 0.0228237 0.372752
1142 1 0.625888 0.0557643 0.42954
897 1 0.583896 0.021366 0.366871
1902 1 0.41642 0.15351 0.476646
1816 1 0.37656 0.21893 0.456692
996 1 0.554876 0.0778747 0.418655
2037 1 0.414606 0.0923301 0.337267
1114 1 0.384703 0.085676 0.414466
328 1 0.428731 0.0218537 0.298429
494 1 0.459881 0.227482 0.424585
645 1 0.633726 0.0447858 0.262795
69 1 0.375218 0.215945 0.377156
80 1 0.575921 0.147372 0.388356
1291 1 0.471281 0.219675 0.270869
1761 1 0.404062 0.193806 0.304074
1040 1 0.479574 0.0972453 0.457382
43 1 0.613964 0.17379 0.452715
2000 1 0.505398 0.112334 0.351334
299 1 0.53793 0.137979 0.288745
1031 1 0.468518 0.188208 0.352833
1476 1 0.539796 0.179847 0.478448
959 1 0.448694 0.0123251 0.431626
930 1 0.651994 0.118811 0.393553
2040 1 0.618431 0.139896 0.312174
2017 1 0.551404 0.101027 0.490363
818 1 0.577132 0.00691974 0.470459
1731 1 0.353327 0.145039 0.354342
1652 1 0.414104 0.0669433 0.485437
1718 1 0.343859 0.0592446 0.325038
1980 1 0.550769 0.198492 0.335062
1809 1 0.455075 0.138933 0.28847
7 1 0.33386 0.00283247 0.265744
1167 1 0.6397 0.242208 0.354147
105 1 0.344278 0.0757864 0.568658
1992 1 0.471935 0.222525 0.690917
1349 1 0.557986 0.036047 0.709345
639 1 0.60673 0.218801 0.701389
1479 1 0.484624 0.124632 0.670485
290 1 0.530001 0.229723 0.543749
615 1 0.447245 0.0229256 0.559048
1667 1 0.406754 0.172333 0.710311
289 1 0.36272 0.212765 0.529708
1004 1 0.448564 0.100255 0.542911
558 1 0.518481 0.183349 0.741832
1394 1 0.34837 0.136515 0.523836
1039 1 0.529953 0.109109 0.740534
1734 1 0.626131 0.126843 0.511173
1295 1 0.451422 0.193872 0.52702
1386 1 0.599313 0.207108 0.526038
562 1 0.398778 0.0267481 0.699765
588 1 0.4171 0.107913 0.634194
1416 1 0.45614 0.176711 0.622667
1673 1 0.513699 0.15902 0.571531
323 1 0.609703 0.0332597 0.535492
1333 1 0.449765 0.0885937 0.730162
1869 1 0.397701 0.212965 0.647014
390 1 0.636291 0.0800954 0.599629
1255 1 0.572029 0.0910953 0.563832
392 1 0.551533 0.155285 0.676336
1615 1 0.488734 0.0753016 0.600667
1239 1 0.544246 0.218593 0.627746
1683 1 0.386783 0.00141437 0.515305
842 1 0.334152 0.158056 0.611364
1614 1 0.556655 0.0858224 0.643937
616 1 0.628021 0.149906 0.655392
1406 1 0.396269 0.0375341 0.6242
207 1 0.402707 0.154686 0.573619
1396 1 0.491205 0.0502509 0.678244
1962 1 0.588467 0.164227 0.595694
719 1 0.625362 0.0829311 0.692647
1087 1 0.573377 0.0253416 0.601959
725 1 0.603012 0.152786 0.735463
1017 1 0.50301 0.043213 0.513158
1728 1 0.615847 0.0148935 0.663244
1943 1 0.464404 0.245311 0.596363
2004 1 0.334138 0.144147 0.703954
1478 1 0.496263 0.232549 0.934762
1990 1 0.486722 0.217215 0.85497
1097 1 0.370416 0.189858 0.791197
1960 1 0.410795 0.200714 0.867082
955 1 0.530083 0.0368757 0.936981
1482 1 0.471997 0.0880371 0.824268
1509 1 0.526154 0.0475027 0.783194
839 1 0.628664 0.0665667 0.803337
1064 1 0.58846 0.190707 0.989479
1774 1 0.439886 0.144996 0.789576
876 1 0.368682 0.0577383 0.826187
1281 1 0.376085 0.0950555 0.758575
1604 1 0.398522 0.0210517 0.974517
1845 1 0.602389 0.0542106 0.910001
524 1 0.38476 0.128936 0.846193
1247 1 0.594443 0.196458 0.915684
415 1 0.402263 0.0828905 0.904594
2025 1 0.467101 0.14615 0.87402
14 1 0.655903 0.18324 0.866876
898 1 0.345572 0.245746 0.89563
162 1 0.424714 0.0286758 0.783142
1944 1 0.442972 0.182346 0.947051
1666 1 0.567359 0.234372 0.77423
200 1 0.588659 0.192478 0.83445
315 1 0.621771 0.127912 0.919702
195 1 0.659582 0.178296 0.961693
1544 1 0.630959 0.00652681 0.858635
227 1 0.532112 0.152206 0.951235
88 1 0.414281 0.0993004 0.996133
695 1 0.36445 0.179348 0.931947
1708 1 0.467412 0.0486499 0.893332
2013 1 0.351237 0.0261204 0.91187
411 1 0.526799 0.15129 0.821479
694 1 0.556569 0.0208393 0.851681
1434 1 0.546215 0.106046 0.880958
1534 1 0.543931 0.0889367 0.999591
561 1 0.477546 0.103086 0.950306
1648 1 0.490107 0.248125 0.764957
785 1 0.402389 0.247968 0.751898
799 1 0.392166 0.398817 0.0241119
1784 1 0.368923 0.41709 0.163865
56 1 0.649402 0.350867 0.00802932
175 1 0.649587 0.257037 0.144984
34 1 0.559599 0.455762 0.223793
104 1 0.468899 0.431779 0.0351663
1455 1 0.389776 0.299372 0.0366601
539 1 0.562746 0.40841 0.144232
820 1 0.549683 0.465441 0.0849745
1309 1 0.339757 0.301149 0.185116
979 1 0.508213 0.402964 0.0949919
859 1 0.419791 0.256176 0.200713
1657 1 0.49461 0.297621 0.202759
511 1 0.415386 0.484958 0.153482
1828 1 0.537498 0.370256 0.205472
1145 1 0.652567 0.289794 0.22422
219 1 0.502722 0.327752 0.133707
1817 1 0.538143 0.406216 0.0189412
1252 1 0.586289 0.327277 0.244762
1938 1 0.407684 0.42942 0.232579
1541 1 0.369483 0.496409 0.238231
888 1 0.537075 0.342417 0.0633579
1287 1 0.412769 0.431588 0.101614
1089 1 0.600607 0.378673 0.0816419
1176 1 0.469267 0.397646 0.182014
186 1 0.603887 0.443961 0.012419
1779 1 0.386448 0.492928 0.0623457
2041 1 0.479589 0.293073 0.0660181
565 1 0.600483 0.303162 0.11544
957 1 0.472068 0.354213 0.0189709
1942 1 0.416026 0.337896 0.234916
1545 1 0.347127 0.372475 0.0919301
90 1 0.525272 0.473045 0.159342
1722 1 0.40942 0.277847 0.129881
1766 1 0.406575 0.349486 0.158972
1627 1 0.635012 0.387066 0.166055
868 1 0.572561 0.261818 0.189641