ITEM: TIMESTEP
100000
ITEM: NUMBER OF ATOMS
2048
ITEM: BOX BOUNDS pp pp pp
0.0000000000000000e+00 1.1635780856594225e+01
0.0000000000000000e+00 1.1635780856594225e+01
0.0000000000000000e+00 1.1635780856594225e+01
ITEM: ATOMS id type xs ys zs
8 1 0.126478 0.0615416 0.0479987
3 1 0.0724789 0.00411636 0.0599044
19 1 0.189483 0.114842 0.0527297
16 1 0.0109869 0.183707 0.0517375
18 1 0.19094 0.182507 0.000960776
195 1 0.0661685 0.249132 0.0576159
197 1 0.123518 0.244745 0.000374553
24 1 0.2475 0.189543 0.0593595
22 1 0.310638 0.189114 0.00561323
203 1 0.311074 0.249698 0.0622344
25 1 0.00336297 0.000286799 0.123079
4 1 0.00210205 0.0605073 0.06659
26 1 0.067957 0.0585206 0.122998
30 1 0.184567 0.0591145 0.124834
15 1 0.0640997 0.122625 0.0733731
37 1 0.00117009 0.124351 0.123424
12 1 0.258753 0.0639201 0.0657977
23 1 0.304957 0.127959 0.0712791
20 1 0.130637 0.193704 0.0678429
38 1 0.0702401 0.191826 0.119059
42 1 0.192137 0.190249 0.121746
36 1 0.252575 0.0547924 0.182506
28 1 0.00566555 0.0631852 0.182531
41 1 0.12798 0.124614 0.125212
32 1 0.125003 0.0636733 0.184286
45 1 0.241751 0.121005 0.130951
34 1 0.313344 0.0648911 0.125792
47 1 0.309517 0.122712 0.185952
46 1 0.306031 0.18573 0.131625
40 1 0.0104407 0.189224 0.180016
44 1 0.126935 0.192812 0.179607
219 1 0.0674916 0.249862 0.181731
225 1 0.248034 0.249815 0.125856
54 1 0.187582 0.055069 0.244151
58 1 0.312326 0.0607162 0.243406
50 1 0.0659964 0.0647489 0.248727
69 1 0.251964 0.121153 0.244013
39 1 0.0684588 0.130279 0.188999
43 1 0.186223 0.125406 0.191924
70 1 0.312074 0.184249 0.243719
245 1 0.129844 0.249967 0.245367
48 1 0.240247 0.189843 0.18915
49 1 0.00505936 0.00984519 0.250405
60 1 0.23994 0.0615098 0.308689
59 1 0.301168 0.00325979 0.306835
61 1 0.00459091 0.123852 0.251101
56 1 0.122431 0.0634937 0.309862
65 1 0.122966 0.121571 0.251893
71 1 0.313734 0.118937 0.305221
67 1 0.181681 0.126695 0.306906
72 1 0.244127 0.184192 0.308717
241 1 0.00127846 0.248537 0.253466
62 1 0.0636989 0.198906 0.251433
66 1 0.181057 0.188509 0.256573
251 1 0.309296 0.245606 0.300465
51 1 0.0570344 0.00331946 0.314665
78 1 0.187326 0.0614713 0.374875
74 1 0.0507381 0.0648434 0.374831
93 1 0.253741 0.116842 0.372317
82 1 0.314788 0.0655913 0.36983
63 1 0.0601766 0.126574 0.316163
90 1 0.190173 0.176057 0.369302
94 1 0.305334 0.185827 0.358036
68 1 0.124079 0.196181 0.318626
81 1 0.245344 0.0006761 0.375417
89 1 0.124081 0.122225 0.375809
86 1 0.0599909 0.185809 0.375139
92 1 0.124482 0.185851 0.43645
95 1 0.320812 0.125172 0.430106
265 1 0.00163773 0.249417 0.375678
271 1 0.182699 0.247129 0.433372
96 1 0.263237 0.190196 0.430054
275 1 0.319289 0.24725 0.430883
75 1 0.0645835 0.0074791 0.441676
84 1 0.261495 0.0589096 0.442978
87 1 0.0560546 0.118591 0.44541
80 1 0.12536 0.0657128 0.437955
113 1 0.121185 0.121563 0.49805
91 1 0.20731 0.124643 0.440252
110 1 0.0651271 0.185752 0.497726
114 1 0.181748 0.179236 0.49585
267 1 0.0644021 0.247388 0.444467
293 1 0.128868 0.245636 0.499285
297 1 0.250602 0.247827 0.493048
98 1 0.0645928 0.0592789 0.503016
101 1 0.125979 0.00216778 0.508294
111 1 0.0620073 0.121278 0.560554
102 1 0.189794 0.064498 0.508799
108 1 0.254568 0.0648263 0.557419
119 1 0.317193 0.124608 0.561451
106 1 0.322268 0.0626454 0.503623
116 1 0.119536 0.182173 0.554221
117 1 0.256101 0.127173 0.5011
118 1 0.312863 0.186795 0.503638
120 1 0.257213 0.195923 0.562159
99 1 0.0625012 0.00790203 0.57469
103 1 0.187749 0.00903644 0.572986
129 1 0.255949 0.00820952 0.62174
107 1 0.313092 0.00247867 0.563852
100 1 0.00337905 0.064245 0.563033
104 1 0.123427 0.0653668 0.564696
130 1 0.316096 0.0668334 0.62126
137 1 0.131081 0.133581 0.624571
115 1 0.187793 0.135055 0.565352
141 1 0.251188 0.140106 0.623476
134 1 0.0626893 0.192594 0.618265
317 1 0.126143 0.247687 0.62
142 1 0.320038 0.191513 0.619638
125 1 0.124868 0.00594174 0.627313
127 1 0.195299 0.00343096 0.686759
122 1 0.0689408 0.0724604 0.632453
128 1 0.133236 0.0723753 0.686677
126 1 0.202147 0.0732739 0.628302
135 1 0.0690037 0.138127 0.681338
143 1 0.315646 0.128283 0.673288
315 1 0.0589502 0.240033 0.684898
140 1 0.132355 0.198614 0.687181
138 1 0.193306 0.202272 0.628666
144 1 0.258586 0.189361 0.686584
123 1 0.0644928 0.013999 0.689682
149 1 0.133179 0.0112051 0.746004
131 1 0.315481 0.00519049 0.692068
146 1 0.0666472 0.0887465 0.744351
150 1 0.190295 0.0683355 0.742643
132 1 0.258519 0.0660417 0.693729
139 1 0.198068 0.135619 0.691187
161 1 0.135897 0.129492 0.743047
166 1 0.318833 0.187123 0.747
162 1 0.194581 0.203198 0.742818
147 1 0.0665111 0.000800466 0.808372
145 1 0.003653 0.0091356 0.753571
151 1 0.186417 0.0047471 0.808011
154 1 0.312627 0.0606879 0.760022
148 1 0.00490276 0.065964 0.809783
152 1 0.126167 0.0683297 0.803859
156 1 0.248053 0.0628187 0.812008
164 1 0.130674 0.181159 0.808492
163 1 0.195565 0.125214 0.812488
165 1 0.264077 0.126186 0.750996
337 1 0.00363018 0.24266 0.754887
339 1 0.0700616 0.245671 0.809139
158 1 0.0716638 0.190132 0.751483
168 1 0.25661 0.193635 0.811033
173 1 0.127724 0.00602699 0.870025
174 1 0.189806 0.0615416 0.872404
178 1 0.306971 0.0521706 0.867716
170 1 0.0704119 0.0670924 0.864898
185 1 0.134193 0.11901 0.870933
159 1 0.0645629 0.130376 0.818467
160 1 0.006716 0.186143 0.817959
186 1 0.189944 0.181484 0.874665
167 1 0.318204 0.131747 0.816498
171 1 0.0661575 0.00598787 0.93496
172 1 0.00647068 0.0616773 0.933201
180 1 0.253479 0.0605547 0.932015
181 1 0.000314875 0.122715 0.875789
176 1 0.122851 0.0646994 0.933624
183 1 0.0680886 0.122636 0.92568
187 1 0.194167 0.121397 0.934298
189 1 0.256292 0.127782 0.876803
191 1 0.317359 0.125902 0.933218
182 1 0.0718454 0.196129 0.881444
365 1 0.13567 0.249517 0.876243
188 1 0.134207 0.187733 0.932223
190 1 0.314913 0.191815 0.875448
1 1 0.0115776 0.00502474 0.998361
5 1 0.125944 0.00229445 0.988601
6 1 0.187712 0.0616536 0.993017
10 1 0.30187 0.0584741 0.9998
2 1 0.0640035 0.0682244 0.994438
13 1 0.00376162 0.117557 0.994455
17 1 0.129759 0.124096 0.994932
14 1 0.0708047 0.182744 0.988698
21 1 0.252711 0.125862 0.995504
192 1 0.240142 0.189863 0.939018
371 1 0.316302 0.246382 0.937986
200 1 0.117587 0.31011 0.0562779
198 1 0.193648 0.310252 0.00582779
201 1 0.259648 0.251051 0.000873162
204 1 0.257178 0.314394 0.0586346
207 1 0.0525619 0.378798 0.0558568
206 1 0.0621869 0.43579 0.00106648
211 1 0.180301 0.376596 0.0597641
216 1 0.24357 0.434202 0.0599146
215 1 0.31038 0.377378 0.052965
210 1 0.18166 0.438605 0.00203712
395 1 0.312957 0.498013 0.0617563
214 1 0.309098 0.444868 0.00131567
199 1 0.189767 0.252147 0.0659889
233 1 0.11819 0.374081 0.118916
222 1 0.18479 0.317809 0.124513
237 1 0.247257 0.374211 0.119181
226 1 0.309909 0.318761 0.122581
212 1 0.119624 0.433725 0.0662114
238 1 0.308247 0.434512 0.123431
387 1 0.0678634 0.496625 0.0664596
221 1 0.12344 0.262876 0.125405
227 1 0.308505 0.253306 0.185975
218 1 0.0597707 0.316225 0.130161
230 1 0.0600679 0.433124 0.128128
236 1 0.128234 0.436837 0.186567
235 1 0.188798 0.380364 0.183523
234 1 0.186616 0.435896 0.125352
409 1 0.000109838 0.496219 0.133122
223 1 0.190517 0.259232 0.190259
249 1 0.24738 0.252167 0.249287
250 1 0.305977 0.308698 0.249453
220 1 0.003624 0.313855 0.197064
231 1 0.0606932 0.373677 0.188247
224 1 0.117205 0.31543 0.190508
246 1 0.184143 0.318168 0.246626
228 1 0.250055 0.312848 0.189264
239 1 0.305152 0.374936 0.188822
254 1 0.063757 0.433894 0.246978
257 1 0.124244 0.377362 0.243718
261 1 0.242573 0.377093 0.2436
411 1 0.0597334 0.491046 0.190935
437 1 0.121988 0.496388 0.246097
258 1 0.183604 0.44762 0.248646
240 1 0.253505 0.441528 0.189237
248 1 0.122902 0.308736 0.307519
252 1 0.248942 0.311128 0.310876
242 1 0.0583664 0.314226 0.255179
259 1 0.183858 0.372615 0.309271
263 1 0.308506 0.371642 0.312455
264 1 0.243703 0.429522 0.308342
435 1 0.0608283 0.496674 0.311216
433 1 0.00141107 0.496695 0.258092
262 1 0.311514 0.437564 0.256853
243 1 0.0577266 0.254297 0.313499
247 1 0.18632 0.25231 0.314004
273 1 0.246572 0.255395 0.372178
274 1 0.307415 0.311364 0.372264
255 1 0.0605062 0.373417 0.319391
285 1 0.242729 0.368432 0.372135
260 1 0.12236 0.431094 0.317156
278 1 0.0579391 0.437849 0.369811
461 1 0.124282 0.494833 0.369534
439 1 0.186671 0.496047 0.315903
465 1 0.250577 0.492172 0.374353
286 1 0.315309 0.441547 0.373349
266 1 0.0647735 0.310499 0.377489
269 1 0.120571 0.251671 0.37769
270 1 0.180455 0.304144 0.378483
281 1 0.121893 0.370432 0.375719
283 1 0.184621 0.373035 0.434027
287 1 0.313498 0.372539 0.431142
282 1 0.180593 0.434704 0.376036
288 1 0.240139 0.43269 0.431207
459 1 0.0585159 0.494325 0.43383
463 1 0.178146 0.495672 0.432424
272 1 0.121102 0.312101 0.444482
276 1 0.240178 0.308296 0.43871
279 1 0.0560703 0.373935 0.438678
309 1 0.25003 0.372173 0.491325
298 1 0.311584 0.313171 0.496732
305 1 0.120988 0.375424 0.49774
284 1 0.123938 0.435901 0.441545
306 1 0.186006 0.429582 0.49584
310 1 0.30973 0.435223 0.484395
489 1 0.242633 0.491227 0.494076
291 1 0.0624137 0.253767 0.5575
290 1 0.0580495 0.31214 0.501808
296 1 0.127002 0.304396 0.559522
295 1 0.189009 0.25247 0.559465
300 1 0.252489 0.309296 0.553014
299 1 0.315541 0.257328 0.558573
294 1 0.183816 0.320367 0.500449
303 1 0.0669429 0.377639 0.55634
312 1 0.248811 0.432422 0.556152
311 1 0.311579 0.378681 0.548267
302 1 0.0568451 0.441396 0.501783
308 1 0.122916 0.442873 0.555402
487 1 0.187191 0.490904 0.556725
318 1 0.186887 0.308838 0.621714
321 1 0.255984 0.254224 0.620133
322 1 0.315503 0.310743 0.623657
292 1 0.00238273 0.315059 0.565047
307 1 0.185123 0.372321 0.570517
333 1 0.257294 0.369398 0.613825
326 1 0.0604035 0.437224 0.622879
325 1 0.00730126 0.379231 0.617395
330 1 0.188363 0.436604 0.624378
334 1 0.317915 0.429417 0.622194
509 1 0.124158 0.498108 0.61873
513 1 0.250621 0.498617 0.623595
491 1 0.311376 0.488585 0.563961
319 1 0.192013 0.260047 0.686869
323 1 0.308574 0.252265 0.681508
320 1 0.1233 0.316062 0.683789
314 1 0.067399 0.316798 0.626669
331 1 0.189538 0.364387 0.683235
327 1 0.0543083 0.380522 0.681173
329 1 0.129541 0.379937 0.625386
332 1 0.123122 0.432424 0.68617
336 1 0.249 0.432827 0.678773
507 1 0.0571836 0.492667 0.686529
511 1 0.188843 0.499135 0.686246
316 1 0.00172465 0.303422 0.68837
341 1 0.13037 0.256456 0.746967
324 1 0.253276 0.314021 0.690061
346 1 0.308486 0.3187 0.749701
354 1 0.183863 0.433733 0.740995
357 1 0.247403 0.376741 0.745181
335 1 0.315396 0.382964 0.690779
537 1 0.242786 0.496789 0.746024
515 1 0.306312 0.489259 0.691599
338 1 0.0657573 0.304721 0.750198
342 1 0.194034 0.30973 0.751383
345 1 0.262412 0.252569 0.75029
347 1 0.31959 0.252615 0.806137
349 1 0.00281965 0.363519 0.753234
355 1 0.174439 0.372619 0.808331
350 1 0.0539414 0.428313 0.753641
356 1 0.121001 0.436536 0.810276
353 1 0.116914 0.376416 0.750827
358 1 0.315536 0.436268 0.754906
531 1 0.0570141 0.495868 0.81006
533 1 0.123395 0.499189 0.751134
360 1 0.243596 0.437946 0.80672
539 1 0.308059 0.499326 0.806619
362 1 0.0638029 0.304714 0.873665
340 1 0.0041644 0.304702 0.814135
344 1 0.127388 0.304617 0.814076
343 1 0.194453 0.255677 0.817506
351 1 0.0607436 0.371207 0.814515
366 1 0.186776 0.323474 0.874935
348 1 0.252552 0.314614 0.813017
359 1 0.31982 0.374762 0.816736
381 1 0.245527 0.383018 0.86433
557 1 0.124558 0.498677 0.87423
561 1 0.249415 0.498104 0.87364
382 1 0.312962 0.44297 0.870151
361 1 0.00316344 0.253311 0.878714
369 1 0.258027 0.255732 0.877769
375 1 0.0586012 0.363434 0.93479
370 1 0.316675 0.31543 0.880426
377 1 0.117693 0.376439 0.87578
378 1 0.180231 0.430008 0.877828
383 1 0.308987 0.38369 0.927202
374 1 0.0632278 0.442817 0.878282
363 1 0.0533167 0.250404 0.939684
194 1 0.0507351 0.310847 0.995315
368 1 0.125096 0.308301 0.937914
367 1 0.189063 0.257251 0.940088
202 1 0.315775 0.311353 0.993204
209 1 0.11382 0.371712 0.999224
372 1 0.255952 0.318186 0.937504
379 1 0.177514 0.375079 0.947759
213 1 0.251792 0.382332 0.994174
380 1 0.120171 0.437969 0.94115
389 1 0.125424 0.499288 0.994339
384 1 0.248844 0.442028 0.944241
393 1 0.247946 0.49841 0.99975
563 1 0.315862 0.49669 0.93894
386 1 0.0533547 0.553843 0.00193952
392 1 0.118709 0.563996 0.0499052
403 1 0.176157 0.6238 0.0554323
394 1 0.315875 0.565015 0.00586365
408 1 0.242571 0.686943 0.0613688
579 1 0.0644049 0.74906 0.0604793
402 1 0.179575 0.688003 0.00580629
583 1 0.18467 0.747208 0.0609413
406 1 0.314827 0.696444 0.000700074
388 1 0.000333913 0.558197 0.0660794
391 1 0.176844 0.508224 0.0627344
417 1 0.241656 0.501561 0.113458
399 1 0.0584591 0.62037 0.0650717
425 1 0.115669 0.621917 0.123384
414 1 0.184038 0.569437 0.118826
396 1 0.250933 0.580234 0.0637651
418 1 0.316995 0.56974 0.119762
422 1 0.0596025 0.683718 0.122742
404 1 0.122828 0.681447 0.0693122
407 1 0.311526 0.63488 0.0661915
400 1 0.000622583 0.687612 0.0663044
605 1 0.129699 0.74856 0.124764
430 1 0.306487 0.700802 0.117729
410 1 0.054977 0.557495 0.137193
413 1 0.128968 0.504005 0.130342
415 1 0.196459 0.502748 0.184195
419 1 0.317058 0.504239 0.18587
420 1 0.251639 0.565514 0.172764
426 1 0.178596 0.682435 0.126414
429 1 0.24242 0.634133 0.126946
431 1 0.311864 0.63215 0.173797
603 1 0.0603243 0.746005 0.181957
609 1 0.246088 0.748432 0.131575
441 1 0.253337 0.506482 0.240383
416 1 0.123422 0.563951 0.190891
427 1 0.175058 0.623343 0.188238
442 1 0.308994 0.572903 0.246463
423 1 0.0651706 0.626526 0.188974
428 1 0.125039 0.685905 0.187685
432 1 0.248076 0.68393 0.191381
454 1 0.308393 0.6874 0.247921
446 1 0.0631966 0.692133 0.249777
607 1 0.189596 0.747285 0.193673
450 1 0.186529 0.68922 0.24847
611 1 0.30509 0.749871 0.194893
434 1 0.0566765 0.559788 0.254253
438 1 0.181839 0.559914 0.255866
443 1 0.313103 0.502726 0.312336
440 1 0.12181 0.569549 0.311232
452 1 0.124646 0.684058 0.309475
449 1 0.121701 0.625973 0.250924
456 1 0.247167 0.686628 0.30892
453 1 0.242576 0.626308 0.250646
631 1 0.183302 0.745422 0.311023
457 1 0.00648502 0.500527 0.374413
462 1 0.18391 0.560006 0.37352
444 1 0.242619 0.553753 0.315737
458 1 0.065073 0.564477 0.37371
451 1 0.186626 0.621402 0.313479
477 1 0.248157 0.619134 0.374174
455 1 0.313189 0.624873 0.312855
466 1 0.309442 0.562701 0.367949
448 1 0.0017761 0.685563 0.316662
447 1 0.0599594 0.628207 0.316861
473 1 0.126123 0.630036 0.372691
474 1 0.186689 0.684767 0.374125
478 1 0.303142 0.685766 0.374703
470 1 0.0602054 0.68791 0.374376
657 1 0.246413 0.748396 0.372316
635 1 0.303332 0.744914 0.317515
464 1 0.122783 0.560993 0.432632
467 1 0.310931 0.50993 0.435817
479 1 0.314558 0.61233 0.4343
471 1 0.0681017 0.629778 0.433627
655 1 0.18965 0.747281 0.434182
480 1 0.249731 0.688912 0.433209
659 1 0.31304 0.742722 0.432908
485 1 0.11415 0.502585 0.49363
486 1 0.180062 0.560717 0.49187
497 1 0.124414 0.621932 0.492688
468 1 0.246657 0.563851 0.439073
490 1 0.31616 0.562551 0.498941
472 1 0.00475473 0.678302 0.444488
475 1 0.196412 0.62804 0.438392
502 1 0.307964 0.679259 0.494729
476 1 0.123066 0.688797 0.438126
498 1 0.191033 0.693761 0.496057
488 1 0.123972 0.551953 0.556859
492 1 0.252005 0.547138 0.558816
482 1 0.056566 0.56334 0.500681
495 1 0.0683461 0.617105 0.560792
499 1 0.183392 0.618558 0.555743
501 1 0.250147 0.616809 0.506681
500 1 0.129317 0.681466 0.558206
504 1 0.251033 0.683751 0.557009
503 1 0.315773 0.630079 0.562137
494 1 0.0695232 0.688079 0.507656
483 1 0.0602574 0.501516 0.562553
484 1 0.00152501 0.560949 0.56612
510 1 0.186124 0.558928 0.617342
514 1 0.31422 0.556042 0.620986
521 1 0.126973 0.622974 0.620035
518 1 0.0707301 0.685957 0.624763
525 1 0.238952 0.62517 0.615181
522 1 0.176112 0.691006 0.62197
705 1 0.250339 0.748072 0.620545
526 1 0.311145 0.691136 0.624615
508 1 0.00261186 0.560123 0.683555
506 1 0.0643772 0.551041 0.625312
512 1 0.127825 0.561793 0.683981
516 1 0.258183 0.55415 0.683164
519 1 0.0639619 0.617837 0.686266
523 1 0.183074 0.620448 0.678002
517 1 0.000652608 0.625109 0.63082
527 1 0.304214 0.633072 0.680789
697 1 0.00547949 0.744894 0.626614
528 1 0.242262 0.68978 0.677897
707 1 0.310493 0.749993 0.682428
530 1 0.0625401 0.555583 0.745475
538 1 0.320961 0.55861 0.744822
545 1 0.122417 0.620112 0.748533
534 1 0.183429 0.562779 0.74852
549 1 0.2475 0.618302 0.742205
520 1 0.00171912 0.679137 0.691523
699 1 0.0599727 0.738556 0.689818
524 1 0.127547 0.689239 0.694102
703 1 0.184967 0.749502 0.69109
550 1 0.309025 0.688518 0.744315
532 1 0.00422942 0.555147 0.810128
536 1 0.12026 0.555179 0.810621
541 1 0.00140294 0.621743 0.759417
543 1 0.066957 0.620546 0.811667
547 1 0.195976 0.624849 0.811496
551 1 0.30738 0.618728 0.805493
548 1 0.126897 0.681275 0.807075
542 1 0.06712 0.68477 0.75189
546 1 0.189786 0.683576 0.750798
721 1 0.000920643 0.742152 0.755415
725 1 0.126273 0.745977 0.756353
729 1 0.250034 0.747448 0.754349
554 1 0.0671126 0.561041 0.873043
535 1 0.187944 0.501593 0.812788
540 1 0.254002 0.558969 0.819818
562 1 0.320508 0.558511 0.872204
565 1 0.00770695 0.619778 0.873595
558 1 0.189022 0.565307 0.871697
569 1 0.131446 0.626939 0.874046
552 1 0.253269 0.683247 0.816736
723 1 0.0623637 0.744681 0.813909
570 1 0.19478 0.687948 0.873189
727 1 0.185402 0.747898 0.815665
555 1 0.0668286 0.504054 0.937262
560 1 0.130472 0.556909 0.931666
559 1 0.185156 0.500015 0.93122
564 1 0.260362 0.561324 0.935189
556 1 0.00265373 0.564577 0.935609
567 1 0.0687538 0.618593 0.929952
571 1 0.194225 0.620528 0.93089
573 1 0.262285 0.621611 0.875916
566 1 0.0703891 0.685942 0.882341
572 1 0.136677 0.686591 0.934791
574 1 0.31676 0.685107 0.876312
749 1 0.131515 0.747594 0.875488
390 1 0.19084 0.555921 0.994097
401 1 0.130302 0.620567 0.991243
398 1 0.064122 0.675017 0.988831
405 1 0.258328 0.6283 0.9978
575 1 0.315782 0.633027 0.940025
747 1 0.0596403 0.749357 0.937816
581 1 0.119382 0.744621 0.995493
751 1 0.193243 0.749949 0.940085
576 1 0.251698 0.695482 0.939891
580 1 0.000575191 0.803443 0.060984
578 1 0.0666975 0.81134 0.00438621
582 1 0.179391 0.81018 0.0049574
585 1 0.250852 0.758983 0.00459139
587 1 0.320292 0.758144 0.054784
593 1 0.127959 0.868992 0.00277337
599 1 0.309698 0.866601 0.0610659
592 1 0.00603517 0.935849 0.0558197
594 1 0.186493 0.927947 0.000293706
598 1 0.303252 0.925775 0.00668344
7 1 0.181305 0.999578 0.0624611
9 1 0.24464 0.988541 0.00593059
602 1 0.0663851 0.807618 0.123201
584 1 0.124702 0.810681 0.0655941
588 1 0.249959 0.810287 0.0646215
613 1 0.01026 0.873812 0.121889
591 1 0.0685704 0.871759 0.063787
595 1 0.183012 0.872402 0.0628075
606 1 0.189774 0.814006 0.121159
621 1 0.254582 0.869171 0.124726
614 1 0.0639148 0.936831 0.119225
596 1 0.129616 0.936653 0.0625204
600 1 0.246029 0.933696 0.0633182
622 1 0.311473 0.92919 0.118596
11 1 0.307613 0.993378 0.0651918
608 1 0.123877 0.799679 0.181684
610 1 0.308365 0.804246 0.12659
617 1 0.118154 0.867789 0.134289
619 1 0.184934 0.873752 0.186132
623 1 0.31506 0.871117 0.181794
618 1 0.186319 0.928179 0.128278
624 1 0.255833 0.930653 0.186715
27 1 0.063888 0.99626 0.180842
29 1 0.125313 0.997682 0.127603
620 1 0.130902 0.939343 0.186074
31 1 0.186872 0.99968 0.181522
33 1 0.250661 0.995576 0.126354
35 1 0.316194 0.993867 0.185631
626 1 0.0723898 0.81106 0.246531
615 1 0.0617376 0.872018 0.191323
604 1 0.00267707 0.818838 0.189657
630 1 0.179654 0.8138 0.244735
612 1 0.241519 0.812688 0.188893
634 1 0.30925 0.81298 0.246929
53 1 0.116176 0.999352 0.246306
57 1 0.25308 0.994813 0.241213
625 1 0.00406793 0.75128 0.254144
629 1 0.125882 0.752102 0.258215
633 1 0.247187 0.758526 0.252674
641 1 0.124263 0.872754 0.256985
636 1 0.242485 0.813651 0.308641
645 1 0.2434 0.872779 0.251059
647 1 0.307377 0.87499 0.310295
638 1 0.0677719 0.934961 0.257286
642 1 0.183871 0.936276 0.252093
646 1 0.310677 0.937458 0.254708
55 1 0.186375 0.9992 0.306683
648 1 0.24347 0.937591 0.307083
627 1 0.0599992 0.75691 0.317665
653 1 0.118101 0.756368 0.370935
658 1 0.309399 0.809603 0.370817
632 1 0.117279 0.81339 0.312977
639 1 0.0661158 0.876383 0.321267
643 1 0.184666 0.87655 0.31544
669 1 0.249491 0.878194 0.373423
644 1 0.128112 0.945949 0.31259
666 1 0.188489 0.941695 0.37021
649 1 0.00051006 0.764816 0.38379
656 1 0.133541 0.809705 0.435354
654 1 0.186107 0.808897 0.375117
660 1 0.251259 0.801257 0.434048
650 1 0.0585369 0.823794 0.387071
665 1 0.125418 0.878554 0.37716
671 1 0.306432 0.876764 0.434031
670 1 0.30448 0.93503 0.375248
662 1 0.0610692 0.938229 0.377351
77 1 0.120322 0.996965 0.378198
651 1 0.0668532 0.760967 0.442173
682 1 0.312634 0.811303 0.494419
652 1 5.97145e-05 0.816109 0.447634
667 1 0.195226 0.866974 0.441719
663 1 0.0520996 0.880976 0.442586
689 1 0.131254 0.880607 0.491473
694 1 0.318516 0.936675 0.499909
668 1 0.132784 0.94581 0.442503
79 1 0.19516 0.999442 0.445415
672 1 0.254852 0.940572 0.438302
83 1 0.313538 0.998388 0.441234
675 1 0.0600002 0.750539 0.560653
677 1 0.128125 0.752578 0.504452
681 1 0.255947 0.751312 0.50387
687 1 0.0619969 0.874128 0.559024
674 1 0.0772829 0.821063 0.500315
678 1 0.18464 0.815112 0.502988
684 1 0.251946 0.814271 0.561065
690 1 0.188619 0.936762 0.510476
693 1 0.250095 0.879725 0.502649
686 1 0.0610078 0.94465 0.511887
105 1 0.254959 0.992988 0.503069
679 1 0.195702 0.754317 0.565394
683 1 0.312322 0.750746 0.563841
676 1 0.00209889 0.81472 0.564884
680 1 0.130151 0.816178 0.569436
691 1 0.190126 0.874916 0.564802
695 1 0.309906 0.874545 0.565109
692 1 0.114954 0.938615 0.578472
714 1 0.187489 0.938321 0.618817
696 1 0.252678 0.941756 0.566594
700 1 0.00483049 0.803853 0.687042
701 1 0.124515 0.752643 0.625499
702 1 0.192297 0.81108 0.627859
698 1 0.066502 0.818276 0.626402
717 1 0.246938 0.872599 0.63017
706 1 0.30967 0.814688 0.626346
713 1 0.125113 0.875632 0.631366
718 1 0.314088 0.929265 0.626771
710 1 0.0549517 0.941672 0.632514
716 1 0.129226 0.941256 0.680016
720 1 0.252737 0.938022 0.681828
704 1 0.119978 0.804505 0.688092
708 1 0.248572 0.805841 0.692471
737 1 0.119104 0.870602 0.745224
715 1 0.182808 0.872341 0.689592
726 1 0.183841 0.813258 0.74896
741 1 0.253543 0.870355 0.747156
711 1 0.0576394 0.882102 0.695631
738 1 0.182191 0.935898 0.743239
719 1 0.314042 0.876854 0.692094
734 1 0.0635003 0.951594 0.740232
742 1 0.321781 0.940985 0.746797
722 1 0.0607675 0.799733 0.754196
730 1 0.31417 0.811627 0.753299
735 1 0.0660285 0.87035 0.808428
743 1 0.318823 0.874292 0.803532
733 1 0.00165412 0.876196 0.753316
736 1 0.00159234 0.933392 0.809691
740 1 0.128687 0.933732 0.802915
739 1 0.187556 0.876197 0.808795
744 1 0.255936 0.932326 0.810112
153 1 0.249308 0.995572 0.754036
155 1 0.310775 0.994056 0.809829
746 1 0.062012 0.809488 0.87267
753 1 0.248071 0.754888 0.874745
731 1 0.305576 0.753452 0.817107
728 1 0.127033 0.814647 0.81267
761 1 0.123538 0.869906 0.871078
732 1 0.24553 0.823255 0.816388
754 1 0.311938 0.817216 0.872898
758 1 0.0689476 0.934808 0.859817
762 1 0.186379 0.940152 0.860134
177 1 0.246218 0.996837 0.867962
752 1 0.117571 0.808111 0.936286
756 1 0.250285 0.8085 0.935356
755 1 0.31439 0.751643 0.932679
750 1 0.189348 0.81588 0.87747
767 1 0.319753 0.874421 0.930525
759 1 0.0605329 0.876256 0.932895
757 1 0.00598879 0.87593 0.875024
765 1 0.251438 0.877231 0.879481
169 1 0.0100653 0.995974 0.877108
764 1 0.127026 0.939274 0.923086
175 1 0.186796 0.999182 0.928728
768 1 0.251434 0.938578 0.937458
766 1 0.310432 0.938217 0.875917
748 1 0.00254555 0.806948 0.938934
589 1 0.00416755 0.870119 0.994322
763 1 0.17845 0.872045 0.939756
597 1 0.246558 0.868023 0.992638
586 1 0.311523 0.814909 0.992198
590 1 0.07023 0.936296 0.999834
179 1 0.316482 0.995393 0.938432
771 1 0.430638 0.00929875 0.0598871
773 1 0.506616 0.00574283 0.00241302
778 1 0.623619 0.0603865 0.0594413
772 1 0.372922 0.0650138 0.06244
779 1 0.35909 0.121966 0.00346918
770 1 0.4319 0.0671741 0.000666853
783 1 0.495038 0.121114 0.00208195
774 1 0.559999 0.0654345 0.00765205
780 1 0.423006 0.176837 0.00310643
787 1 0.621692 0.125057 0.00181388
933 1 0.494753 0.249973 0.00858403
784 1 0.561317 0.193436 0.00739783
793 1 0.501265 0.00183547 0.119004
775 1 0.568206 0.000306095 0.0658175
781 1 0.434988 0.123341 0.0638028
776 1 0.500056 0.0756847 0.0743858
799 1 0.375125 0.1292 0.123592
786 1 0.501766 0.180815 0.0764704
785 1 0.56515 0.129828 0.0648452
788 1 0.629585 0.18379 0.0725919
782 1 0.370111 0.192793 0.0724319
791 1 0.436245 0.00189358 0.179739
796 1 0.508752 0.0544087 0.182597
794 1 0.569914 0.0553702 0.127039
792 1 0.376118 0.0705901 0.182126
790 1 0.4335 0.0661984 0.128451
803 1 0.503881 0.122928 0.138086
807 1 0.630736 0.112998 0.125992
801 1 0.437373 0.131512 0.181776
804 1 0.56271 0.187092 0.133458
802 1 0.373027 0.190207 0.183005
800 1 0.434579 0.196363 0.128276
953 1 0.503254 0.244724 0.129822
808 1 0.630802 0.189008 0.180301
798 1 0.633767 0.057591 0.188278
819 1 0.372787 0.121813 0.247121
810 1 0.437802 0.0678116 0.236568
823 1 0.502033 0.117347 0.234589
805 1 0.573763 0.117886 0.18757
827 1 0.628681 0.119036 0.245851
820 1 0.435056 0.186841 0.241345
824 1 0.565411 0.176618 0.247583
806 1 0.501263 0.190058 0.194187
812 1 0.3763 0.0590719 0.301943
811 1 0.435047 0.00314615 0.305401
813 1 0.501067 0.00572986 0.251956
817 1 0.633429 0.00177607 0.254018
816 1 0.490136 0.0680461 0.305594
814 1 0.56021 0.0628677 0.253952
822 1 0.369125 0.183658 0.305495
821 1 0.432228 0.126862 0.298302
826 1 0.501668 0.180615 0.303188
971 1 0.439982 0.248978 0.299541
828 1 0.619951 0.191838 0.308468
830 1 0.427497 0.0610888 0.367787
833 1 0.501653 0.00485391 0.371758
815 1 0.566075 0.000271531 0.317525
818 1 0.630233 0.0583148 0.316343
825 1 0.572318 0.117821 0.321618
839 1 0.374144 0.128217 0.364529
844 1 0.556464 0.183693 0.371032
847 1 0.62776 0.134324 0.374765
989 1 0.3761 0.245836 0.373351
840 1 0.442572 0.189877 0.361638
975 1 0.554201 0.243821 0.31437
834 1 0.567006 0.0582684 0.37762
841 1 0.431402 0.119483 0.431813
836 1 0.490938 0.064781 0.4356
845 1 0.569356 0.123051 0.430675
842 1 0.382563 0.187229 0.436863
843 1 0.499339 0.125895 0.375382
846 1 0.493524 0.193363 0.435534
995 1 0.559252 0.242721 0.431127
848 1 0.626514 0.188737 0.435899
832 1 0.37644 0.0556429 0.438353
854 1 0.566485 0.0621563 0.494581
838 1 0.628109 0.0559339 0.437862
863 1 0.498283 0.127341 0.495111
867 1 0.622317 0.129587 0.496669
864 1 0.564313 0.190212 0.496503
850 1 0.435429 0.0596884 0.501734
853 1 0.499866 0.00353979 0.504076
855 1 0.561726 0.00843771 0.561649
857 1 0.623439 0.00297397 0.504929
852 1 0.379986 0.0687275 0.560025
858 1 0.624905 0.0644744 0.559195
859 1 0.379334 0.129018 0.501559
861 1 0.439323 0.126655 0.560306
860 1 0.441145 0.192659 0.502605
1013 1 0.500028 0.248249 0.509649
1015 1 0.564284 0.248758 0.556811
869 1 0.369824 0.000720529 0.624391
870 1 0.431146 0.0621533 0.620899
877 1 0.629816 0.00699707 0.621443
856 1 0.493417 0.0639534 0.562757
879 1 0.380162 0.126876 0.620794
880 1 0.441064 0.185602 0.622398
866 1 0.501852 0.184956 0.564543
865 1 0.566443 0.127945 0.562875
868 1 0.630889 0.184288 0.562994
862 1 0.38227 0.192388 0.562629
1011 1 0.441135 0.249546 0.569112
1037 1 0.623307 0.246637 0.616226
875 1 0.567675 0.00173326 0.686338
872 1 0.373887 0.0655487 0.684929
881 1 0.445017 0.120303 0.683583
883 1 0.510414 0.123189 0.626319
874 1 0.565596 0.0629159 0.62825
878 1 0.628868 0.0626934 0.685629
887 1 0.618305 0.127368 0.628212
882 1 0.373166 0.187553 0.683737
1029 1 0.374829 0.247947 0.630134
886 1 0.508792 0.188727 0.684547
884 1 0.566303 0.190768 0.627443
888 1 0.630764 0.191472 0.683154
890 1 0.437499 0.0590669 0.744979
871 1 0.445606 0.00114133 0.691445
876 1 0.510496 0.0637508 0.688347
885 1 0.565636 0.12245 0.689667
899 1 0.380311 0.126431 0.743206
903 1 0.502793 0.125161 0.745758
904 1 0.565978 0.182314 0.747042
907 1 0.628148 0.127233 0.743457
900 1 0.436591 0.194368 0.741723
1035 1 0.566056 0.246859 0.688889
889 1 0.377701 0.00199023 0.753357
891 1 0.440828 0.00633874 0.808337
893 1 0.506053 0.00825366 0.752886
895 1 0.565757 0.00490098 0.809066
894 1 0.568103 0.0647401 0.752768
901 1 0.435747 0.12713 0.800471
902 1 0.383366 0.196677 0.809816
908 1 0.62195 0.18848 0.808201
898 1 0.629284 0.0575079 0.81783
892 1 0.37532 0.0682411 0.815938
896 1 0.496522 0.0667929 0.826962
905 1 0.552465 0.126357 0.813339
906 1 0.497067 0.187952 0.817098
1055 1 0.558491 0.247629 0.823816
912 1 0.370001 0.0596796 0.933604
919 1 0.378861 0.123626 0.881969
910 1 0.432038 0.0635451 0.881664
914 1 0.574041 0.0681875 0.878828
922 1 0.374607 0.184126 0.935224
920 1 0.437526 0.1861 0.884865
923 1 0.505638 0.128763 0.885589
924 1 0.564781 0.181377 0.877617
928 1 0.624812 0.183883 0.93721
927 1 0.633062 0.126211 0.879098
1073 1 0.505032 0.240664 0.883379
1077 1 0.620106 0.244902 0.876543
915 1 0.56231 0.00807922 0.939416
918 1 0.631453 0.0548006 0.945618
921 1 0.434161 0.12411 0.940711
916 1 0.496108 0.0648951 0.944809
926 1 0.504356 0.187215 0.94465
925 1 0.568809 0.128323 0.940143
1075 1 0.56554 0.243204 0.943454
930 1 0.436026 0.308903 0.00282914
936 1 0.492151 0.307036 0.0615439
935 1 0.558659 0.257303 0.0618016
937 1 0.623403 0.251312 0.00681659
932 1 0.372712 0.31455 0.059807
941 1 0.438055 0.377824 0.0589114
943 1 0.506245 0.387058 0.00025469
947 1 0.619054 0.375388 0.00416378
942 1 0.371989 0.439021 0.0569484
940 1 0.440261 0.448068 0.00381493
944 1 0.569658 0.441546 0.00284415
949 1 0.367628 0.262319 0.119916
931 1 0.430545 0.252457 0.0667129
957 1 0.62008 0.253009 0.118929
959 1 0.371037 0.373844 0.123784
950 1 0.433796 0.321951 0.123468
945 1 0.563036 0.373375 0.0626774
954 1 0.55157 0.321563 0.12495
938 1 0.629502 0.314525 0.0674966
1091 1 0.436122 0.499953 0.0651822
946 1 0.503286 0.438535 0.062621
948 1 0.620826 0.442631 0.0669039
951 1 0.42603 0.260769 0.181751
955 1 0.567595 0.254685 0.187201
960 1 0.428377 0.435173 0.126025
963 1 0.493403 0.382701 0.128012
967 1 0.622128 0.378426 0.12694
964 1 0.556836 0.440633 0.12622
968 1 0.625134 0.437517 0.187013
969 1 0.369302 0.254904 0.249952
970 1 0.428349 0.311271 0.248165
973 1 0.506566 0.256048 0.243689
977 1 0.629901 0.250436 0.246701
952 1 0.365122 0.317787 0.191956
956 1 0.492102 0.318104 0.187807
958 1 0.621811 0.322681 0.190943
962 1 0.364854 0.434881 0.190325
961 1 0.432949 0.375446 0.194155
965 1 0.561418 0.380179 0.188986
1111 1 0.431789 0.496958 0.196568