LAMMPS (15 Sep 2022)
OMP_NUM_THREADS environment is not set. Defaulting to 1 thread. (src/comm.cpp:98)
  using 1 OpenMP thread(s) per MPI task
Lattice spacing in x,y,z = 1.7099759 1.7099759 1.7099759
Created orthogonal box = (0 0 0) to (13.679808 13.679808 13.679808)
  3 by 4 by 4 MPI processor grid
Created 2048 atoms
  using lattice units in orthogonal box = (0 0 0) to (13.679808 13.679808 13.679808)
  create_atoms CPU = 0.001 seconds
Generated 0 of 0 mixed pair_coeff terms from geometric mixing rule
Neighbor list info ...
  update: every = 1 steps, delay = 0 steps, check = yes
  max neighbors/atom: 2000, page size: 100000
  master list distance cutoff = 1.3
  ghost atom cutoff = 1.3
  binsize = 0.65, bins = 22 22 22
  1 neighbor lists, perpetual/occasional/extra = 1 0 0
  (1) pair lj/cut, perpetual
      attributes: half, newton on
      pair build: half/bin/atomonly/newton
      stencil: half/bin/3d
      bin: standard
Setting up Verlet run ...
  Unit style    : lj
  Current step  : 0
  Time step     : 0.01
Per MPI rank memory allocation (min/avg/max) = 3.065 | 3.065 | 3.065 Mbytes
   Step          Temp          E_pair         E_mol          TotEng         Press     
         0   3              0              0              4.4978027      2.3988281    
       500   3.0449738      0.96914762     0              5.5343781      12.388321    
      1000   3.0263037      0.97305367     0              5.5102926      12.298422    
      1500   2.999843       0.91526416     0              5.4128316      11.990209    
      2000   2.9338791      0.96468707     0              5.3633569      12.290087    
      2500   2.9087256      1.007096       0              5.3680539      12.593326    
      3000   2.9665352      0.99594537     0              5.4435754      12.352243    
      3500   3.0467443      0.95367989     0              5.5215648      12.123036    
      4000   3.0407483      0.99784112     0              5.5567364      12.619029    
      4500   3.0825507      0.96987498     0              5.5914433      12.416466    
      5000   2.9902393      1.0404408      0              5.5236097      12.690512    
      5500   2.9872042      1.0014159      0              5.4800343      12.447958    
      6000   2.9739822      0.93697746     0              5.3957726      12.22838     
      6500   2.9043118      1.0873678      0              5.4417083      13.06837     
      7000   2.9459536      0.96755027     0              5.384323       12.233477    
      7500   2.910226       1.0043123      0              5.3675198      12.389932    
      8000   2.9872417      0.93554569     0              5.4142204      12.076816    
      8500   3.0226921      0.91820216     0              5.4500264      11.824322    
      9000   2.945979       0.98097594     0              5.3977868      12.27437     
      9500   2.9814258      0.92975063     0              5.3997056      11.974963    
     10000   2.9533189      0.85164899     0              5.2794643      11.294193    
     10500   2.9378244      1.029208       0              5.4337929      12.74462     
     11000   2.9039827      0.99492578     0              5.3487728      12.369314    
     11500   3.0195256      0.92821435     0              5.4552912      12.060989    
     12000   2.9293282      1.0317186      0              5.4235654      12.777935    
     12500   2.958476       0.9327321      0              5.3682793      11.833273    
     13000   2.9337296      0.98045878     0              5.3789045      12.426473    
     13500   3.0241959      0.91922638     0              5.4533053      11.914335    
     14000   3.029721       0.98000478     0              5.5223673      12.401943    
     14500   3.0650464      0.89823255     0              5.4935573      11.727767    
     15000   3.0974064      0.98489797     0              5.6287389      12.369556    
     15500   3.0701274      0.95427115     0              5.5572137      12.124925    
     16000   3.0153479      1.0089627      0              5.5297761      12.595687    
     16500   2.9858245      0.88135549     0              5.3579054      11.669724    
     17000   2.9062412      0.90971186     0              5.266945       11.618044    
     17500   2.9403039      0.94807574     0              5.3563781      12.117936    
     18000   3.014032       0.89481717     0              5.4136576      11.677619    
     18500   2.943463       1.0034716      0              5.4165102      12.492574    
     19000   2.9521229      0.952028       0              5.3780502      12.026759    
     19500   2.9606768      1.0277471      0              5.4665939      12.704531    
     20000   3.0127678      0.9449795      0              5.4619246      12.233287    
     20500   3.0409981      1.0098008      0              5.5690706      12.648572    
     21000   3.0004201      1.0585043      0              5.5569369      12.915491    
     21500   2.9157506      1.041389       0              5.4128793      12.608581    
     22000   2.9826739      0.93552381     0              5.4073501      11.994182    
     22500   2.9372237      1.004186       0              5.4078703      12.486157    
     23000   2.9746856      0.97484607     0              5.4346958      12.279938    
     23500   3.0268916      0.8767345      0              5.414855       11.63441     
     24000   2.8919696      0.99963893     0              5.3354752      12.405762    
     24500   2.9799544      0.93347568     0              5.4012247      11.944839    
     25000   2.9494449      0.95433052     0              5.3763376      12.159116    
     25500   3.0052885      0.92666199     0              5.4323936      11.98316     
     26000   2.9837727      0.94333597     0              5.4168097      11.967974    
     26500   2.9613426      1.0261204      0              5.4659655      12.575339    
     27000   2.9877005      1.0020243      0              5.4813868      12.563787    
     27500   3.0819032      1.0039515      0              5.6245489      12.68076     
     28000   2.9694287      0.99012978     0              5.442098       12.338059    
     28500   2.9580688      0.96241771     0              5.3973543      12.233163    
     29000   2.9493415      0.90506386     0              5.326916       11.731523    
     29500   3.0017814      0.95657745     0              5.4570509      12.153459    
     30000   3.0017786      0.94025402     0              5.4407234      12.012027    
     30500   3.0171404      0.94593315     0              5.4694339      11.977947    
     31000   2.9659344      0.97777382     0              5.4245031      12.429872    
     31500   2.9760168      0.93676523     0              5.3986107      12.142562    
     32000   2.9983013      0.91254743     0              5.4078033      11.740646    
     32500   3.0373978      0.94771283     0              5.5015849      12.242018    
     33000   3.0327029      0.97614602     0              5.5229791      12.158812    
     33500   3.0313124      0.96926934     0              5.5140177      12.316082    
     34000   3.1499156      0.95438502     0              5.6769513      12.180349    
     34500   3.1012224      0.95633037     0              5.6058925      12.14734     
     35000   3.0680095      1.0238985      0              5.6236656      12.603039    
     35500   3.0578123      1.0340327      0              5.6185115      12.736175    
     36000   3.025876       1.0501473      0              5.5867451      12.939026    
     36500   2.9465734      0.98482995     0              5.402532       12.206502    
     37000   2.9476706      1.0278339      0              5.4471809      12.50704     
     37500   2.9685382      0.93088415     0              5.3815172      12.009972    
     38000   3.0137912      0.94012826     0              5.4586078      12.061121    
     38500   3.0359963      0.99515459     0              5.5469254      12.495675    
     39000   3.0173681      1.0124121      0              5.5362542      12.679917    
     39500   2.9784568      0.96417008     0              5.4296738      12.337032    
     40000   2.874324       0.93640756     0              5.2457884      11.697112    
     40500   2.9327926      0.93852941     0              5.3355703      11.874988    
     41000   2.9519563      1.0151949      0              5.4409673      12.592248    
     41500   2.9621244      0.98735382     0              5.4283709      12.391795    
     42000   3.0116011      1.0167225      0              5.5319184      12.647581    
     42500   3.0304346      0.98799934     0              5.5314317      12.514812    
     43000   3.0239134      1.0323363      0              5.5659916      12.725455    
     43500   3.0797756      0.96792695     0              5.5853347      12.314438    
     44000   3.0831441      1.0455698      0              5.6680278      12.959426    
     44500   3.0573843      0.96359071     0              5.5474279      12.200484    
     45000   2.9227124      0.96350547     0              5.3454334      12.168707    
     45500   2.9515375      0.91622268     0              5.3413671      11.869231    
     46000   2.9197603      0.93468359     0              5.3121856      12.107213    
     46500   2.9349959      1.0099628      0              5.410307       12.350797    
     47000   2.9497437      0.8864122      0              5.3088672      11.600126    
     47500   2.9584318      0.99293201     0              5.4284129      12.539927    
     48000   2.9901794      0.96510289     0              5.448182       12.164152    
     48500   2.9144202      1.0306695      0              5.4001652      12.513347    
     49000   2.9536322      0.99161547     0              5.4199005      12.443195    
     49500   3.0236001      0.93410147     0              5.467287       12.087845    
     50000   3.0192972      0.96005037     0              5.4867848      12.211264    
Loop time of 2.19864 on 48 procs for 50000 steps with 2048 atoms

Performance: 19648542.875 tau/day, 22741.369 timesteps/s, 46.574 Matom-step/s
99.4% CPU use with 48 MPI tasks x 1 OpenMP threads

MPI task timing breakdown:
Section |  min time  |  avg time  |  max time  |%varavg| %total
---------------------------------------------------------------
Pair    | 0.070669   | 0.073488   | 0.085615   |   1.1 |  3.34
Neigh   | 0.3757     | 0.3819     | 0.42495    |   1.2 | 17.37
Comm    | 1.1328     | 1.1925     | 1.2806     |   3.0 | 54.24
Output  | 0.0023755  | 0.002499   | 0.0062271  |   1.1 |  0.11
Modify  | 0.25707    | 0.33881    | 0.382      |   5.1 | 15.41
Other   |            | 0.2094     |            |       |  9.53

Nlocal:        42.6667 ave          49 max          36 min
Histogram: 2 2 5 5 9 5 12 4 1 3
Nghost:        165.938 ave         176 max         157 min
Histogram: 3 8 3 6 6 5 5 5 5 2
Neighs:        155.771 ave         193 max         116 min
Histogram: 1 4 5 4 6 10 7 6 4 1

Total # of neighbors = 7477
Ave neighs/atom = 3.6508789
Neighbor list builds = 20251
Dangerous builds = 0
Generated 0 of 0 mixed pair_coeff terms from geometric mixing rule
Setting up Verlet run ...
  Unit style    : lj
  Current step  : 50000
  Time step     : 0.01
Per MPI rank memory allocation (min/avg/max) = 3.107 | 3.108 | 3.108 Mbytes
   Step          Temp          E_pair         E_mol          TotEng         Press     
     50000   3.0192972      0.96005037     0              5.4867848      12.211264    
     50500   3.0177261      1.0412647      0              5.5656436      12.689867    
     51000   3.0951789      1.0200545      0              5.6605559      12.801856    
     51500   2.9594626      0.94170612     0              5.3787324      12.156907    
     52000   2.9562749      0.97130261     0              5.4035497      12.287943    
     52500   2.9395409      0.96896101     0              5.3761193      12.182962    
     53000   3.0345199      0.91383619     0              5.4633934      11.870693    
     53500   2.9302211      0.98982268     0              5.3830082      12.268083    
     54000   2.9151145      0.93479809     0              5.3053347      11.955389    
     54500   2.9217489      0.87291424     0              5.2533976      11.444439    
     55000   2.8690751      0.920425       0              5.2219363      11.693812    
     55500   2.8729793      0.93270069     0              5.2400655      11.87511     
     56000   2.8660709      0.90204718     0              5.1990544      11.683901    
     56500   2.826663       0.9426927      0              5.1806168      11.916442    
     57000   2.722228       0.9427963      0              5.0241445      11.668618    
     57500   2.7206611      0.86154289     0              4.9405418      11.129752    
     58000   2.6364517      0.92936802     0              4.8821146      11.750982    
     58500   2.6651435      0.87140849     0              4.8671717      11.221357    
     59000   2.6573357      0.89233744     0              4.8763948      11.37935     
     59500   2.6962346      0.86204081     0              4.9044179      11.209349    
     60000   2.6795611      0.82903075     0              4.8464098      10.994209    
     60500   2.584613       0.80637861     0              4.6814051      10.804824    
     61000   2.6393347      0.84064523     0              4.7977141      11.042071    
     61500   2.6428816      0.83874968     0              4.8011364      10.997405    
     62000   2.6195793      0.80101077     0              4.728461       10.64189     
     62500   2.5986316      0.81380462     0              4.7098487      10.680412    
     63000   2.6027756      0.85207428     0              4.7543313      11.121228    
     63500   2.6671154      0.80138504     0              4.8001046      10.647245    
     64000   2.6236539      0.82669623     0              4.7602555      10.871493    
     64500   2.6217224      0.82680725     0              4.7574707      10.889389    
     65000   2.607934       0.80227412     0              4.712265       10.715997    
     65500   2.592257       0.86360217     0              4.7500891      11.123728    
     66000   2.5077474      0.80460848     0              4.5643929      10.640602    
     66500   2.5435665      0.77070997     0              4.5841968      10.369667    
     67000   2.4738285      0.84762714     0              4.556558       11.005502    
     67500   2.5137276      0.8073177      0              4.576068       10.566458    
     68000   2.4619636      0.81543548     0              4.5065776      10.816353    
     68500   2.5103564      0.73112469     0              4.4948206      10.059489    
     69000   2.4110841      0.75687654     0              4.3717368      10.063195    
     69500   2.4445543      0.74982017     0              4.4148612      10.11109     
     70000   2.4713783      0.68141877     0              4.3866762      9.5514166    
     70500   2.3731177      0.7823234      0              4.3402618      10.395726    
     71000   2.4024335      0.72374623     0              4.3256369      9.9399579    
     71500   2.3418355      0.78471587     0              4.2957539      10.358575    
     72000   2.3608973      0.74201637     0              4.2816332      10.021984    
     72500   2.3710421      0.77064654     0              4.325473       10.225027    
     73000   2.4308209      0.70514019     0              4.3495911      9.8486428    
     73500   2.3844539      0.77080605     0              4.3457404      10.157275    
     74000   2.2769752      0.70892762     0              4.1227227      9.7364037    
     74500   2.2899912      0.72053129     0              4.1538408      9.8570723    
     75000   2.3289506      0.71980468     0              4.2115247      9.8757522    
     75500   2.277716       0.71276546     0              4.1276712      9.7622237    
     76000   2.2719195      0.68144366     0              4.0876589      9.4853083    
     76500   2.2472101      0.75801971     0              4.127189       10.084513    
     77000   2.2148254      0.71505502     0              4.035671       9.6235184    
     77500   2.2027399      0.6858837      0              3.9883801      9.4825178    
     78000   2.2675439      0.66085963     0              4.0605146      9.2103406    
     78500   2.2193532      0.6574317      0              3.9848359      9.3150138    
     79000   2.1703392      0.72491662     0              3.9788358      9.8862092    
     79500   2.176995       0.63610833     0              3.9000063      8.9972377    
     80000   2.1527591      0.688928       0              3.9164899      9.394009     
     80500   2.0689045      0.66762438     0              3.7694658      9.2562946    
     81000   2.0991851      0.62198028     0              3.7692204      8.9008613    
     81500   2.0717132      0.68190946     0              3.7879619      9.3279261    
     82000   2.0737565      0.63697198     0              3.7460879      9.0106542    
     82500   2.1171237      0.62551957     0              3.7996544      9.0022723    
     83000   2.0497774      0.64383326     0              3.7169981      9.0511344    
     83500   2.0046954      0.61202722     0              3.617602       8.7358044    
     84000   2.0044262      0.57834987     0              3.5835211      8.3870786    
     84500   1.9935214      0.56623989     0              3.555062       8.2605343    
     85000   1.9737062      0.57936131     0              3.538475       8.3930875    
     85500   1.948583       0.64482054     0              3.5662679      8.8279418    
     86000   1.9470776      0.6065727      0              3.525763       8.5704711    
     86500   1.9521176      0.57593297     0              3.5026796      8.3204708    
     87000   1.9247705      0.58663613     0              3.4723821      8.5194774    
     87500   1.9617655      0.59509382     0              3.5363053      8.5741768    
     88000   1.9037057      0.55137884     0              3.4055431      8.0948122    
     88500   1.8668379      0.5921146      0              3.3910041      8.4640823    
     89000   1.8562957      0.56300378     0              3.3460877      8.2237037    
     89500   1.8378655      0.57419209     0              3.3296443      8.0099184    
     90000   1.7871657      0.56524159     0              3.2446812      8.1514698    
     90500   1.8191391      0.56644286     0              3.2938191      8.2994952    
     91000   1.8140482      0.59038819     0              3.3101318      8.2794877    
     91500   1.8058132      0.55051189     0              3.257909       8.041086     
     92000   1.742744       0.52486124     0              3.1377009      7.7853077    
     92500   1.7446462      0.538456       0              3.1541474      7.8705945    
     93000   1.7008655      0.46630309     0              3.0163555      7.2043758    
     93500   1.6676976      0.52674129     0              3.0270663      7.6526646    
     94000   1.7033673      0.51314551     0              3.0669489      7.6368498    
     94500   1.6858079      0.50570833     0              3.0331854      7.5649607    
     95000   1.6884269      0.46473068     0              2.9961344      7.1692329    
     95500   1.7017631      0.48565419     0              3.0370525      7.4405782    
     96000   1.68124        0.49451992     0              3.0151486      7.4685563    
     96500   1.6535933      0.51175666     0              2.9909355      7.6701126    
     97000   1.6274848      0.46744182     0              2.907477       7.1045596    
     97500   1.6302459      0.46281889     0              2.9069938      7.0356544    
     98000   1.6360098      0.45934657     0              2.912163       7.2054676    
     98500   1.6031266      0.49594256     0              2.8994584      7.4256708    
     99000   1.6072504      0.44218781     0              2.8518862      6.8880404    
     99500   1.5631838      0.49160669     0              2.8352375      7.3834837    
    100000   1.5610614      0.41622275     0              2.7566715      6.734118     
    100500   1.5181817      0.47520542     0              2.7513661      7.1459496    
    101000   1.4880983      0.43938285     0              2.6704404      6.7880683    
    101500   1.4729824      0.43724971     0              2.6456445      6.8700698    
    102000   1.4737039      0.411871       0              2.6213474      6.7039529    
    102500   1.4553264      0.46364207     0              2.6455658      6.9250462    
    103000   1.4547455      0.43308137     0              2.6141341      6.6784571    
    103500   1.4556353      0.41609392     0              2.5984807      6.5015145    
    104000   1.4769956      0.40573927     0              2.6201509      6.4498973    
    104500   1.4573581      0.42904946     0              2.6140192      6.6258814    
    105000   1.4257818      0.43272333     0              2.5703518      6.7337415    
    105500   1.4214783      0.40624409     0              2.5374204      6.4357399    
    106000   1.4165074      0.32440632     0              2.44813        5.6377323    
    106500   1.347183       0.39179696     0              2.4115848      6.2212299    
    107000   1.3519661      0.36353952     0              2.3904985      5.9755071    
    107500   1.3497795      0.37029487     0              2.3939755      6.1055752    
    108000   1.3123253      0.3978285      0              2.3653552      6.3660626    
    108500   1.3610362      0.34843715     0              2.3889946      5.8301218    
    109000   1.2804056      0.3528301      0              2.2725008      5.8774111    
    109500   1.2654561      0.33251962     0              2.229777       5.6183646    
    110000   1.2255258      0.33593745     0              2.1733286      5.6169512    
    110500   1.2327893      0.36059162     0              2.2088727      5.8933455    
    111000   1.2226628      0.37572885     0              2.2088276      6.0498825    
    111500   1.2317113      0.32083143     0              2.1674963      5.4240507    
    112000   1.2349237      0.32072827     0              2.1722093      5.563072     
    112500   1.197357       0.32207453     0              2.117233       5.4804489    
    113000   1.172915       0.35093957     0              2.1094531      5.7457051    
    113500   1.2197617      0.32426881     0              2.153018       5.5186163    
    114000   1.1730458      0.30578347     0              2.064493       5.281729     
    114500   1.1709275      0.26991634     0              2.02545        4.9731923    
    115000   1.0985447      0.2914581      0              1.9384705      5.0953708    
    115500   1.0850927      0.28284906     0              1.9096933      5.0293892    
    116000   1.0954994      0.27288773     0              1.9153344      4.9118631    
    116500   1.0731938      0.2626096      0              1.8716143      4.7080765    
    117000   1.0482666      0.28715479     0              1.8587869      4.9488048    
    117500   1.0481308      0.2896446      0              1.8610731      5.0402132    
    118000   1.0354242      0.28008679     0              1.8324647      4.9723076    
    118500   1.0287087      0.2590236      0              1.8013332      4.7211823    
    119000   1.0326731      0.25328934     0              1.8015426      4.6197935    
    119500   1.004703       0.25723954     0              1.7635582      4.6653222    
    120000   0.97305429     0.26518206     0              1.7240508      4.7687502    
    120500   0.95466003     0.24278993     0              1.6740808      4.4486288    
    121000   0.93450296     0.25812184     0              1.6591918      4.6335817    
    121500   0.94657755     0.22973427     0              1.6489073      4.3548627    
    122000   0.93330867     0.23417341     0              1.6334528      4.3783032    
    122500   0.90109237     0.22428181     0              1.5752604      4.2136456    
    123000   0.87595554     0.21687692     0              1.5301687      4.1541959    
    123500   0.84288629     0.22729376     0              1.4910058      4.2289356    
    124000   0.83440424     0.22005155     0              1.4710468      4.1555573    
    124500   0.84569005     0.20422732     0              1.472143       3.979805     
    125000   0.83315196     0.20619794     0              1.4553157      4.0042495    
    125500   0.83059014     0.20162659     0              1.4469035      3.9769728    
    126000   0.77999317     0.20552654     0              1.374945       3.9031129    
    126500   0.78391116     0.19113562     0              1.3664282      3.7820127    
    127000   0.78463847     0.19410687     0              1.3704899      3.8125313    
    127500   0.73871447     0.18751754     0              1.2950482      3.6787747    
    128000   0.72595168     0.18698871     0              1.2753845      3.6617907    
    128500   0.72020384     0.16888397     0              1.2486622      3.455969     
    129000   0.72350654     0.16570343     0              1.2504333      3.4082814    
    129500   0.70547709     0.16751843     0              1.2252174      3.4006263    
    130000   0.69571425     0.14912487     0              1.1921867      3.225387     
    130500   0.6561286      0.16707429     0              1.1507866      3.3652149    
    131000   0.64260096     0.17000464     0              1.1334354      3.3950495    
    131500   0.62104094     0.15038856     0              1.0814951      3.0979747    
    132000   0.61987183     0.14372091     0              1.0730746      3.1249771    
    132500   0.61402478     0.13797507     0              1.0585625      2.9888707    
    133000   0.57990138     0.14545676     0              1.0148841      3.1010114    
    133500   0.56357042     0.13448519     0              0.97942805     2.8980421    
    134000   0.56027913     0.12280946     0              0.9628178      2.7915795    
    134500   0.54297218     0.12911048     0              0.94317106     2.8428377    
    135000   0.53248842     0.11695224     0              0.91529486     2.6745136    
    135500   0.51394936     0.11354746     0              0.88409506     2.6249748    
    136000   0.504496       0.10797441     0              0.86434891     2.5385559    
    136500   0.49827047     0.10033869     0              0.84737945     2.4234998    
    137000   0.49225494     0.11523583     0              0.8532577      2.615186     
    137500   0.46273163     0.089410179    0              0.78316871     2.2420403    
    138000   0.44570167     0.098330781    0              0.76655685     2.349443     
    138500   0.4328211      0.0931826      0              0.74209725     2.2852311    
    139000   0.42606866     0.089109576    0              0.7279005      2.1730845    
    139500   0.40858153     0.08378022     0              0.69635326     2.107751     
    140000   0.3880607      0.069327229    0              0.65113406     1.8834684    
    140500   0.37221599     0.0722894      0              0.63034077     1.9147294    
    141000   0.36341506     0.075756757    0              0.62061318     1.9646699    
    141500   0.35109745     0.068462174    0              0.59485119     1.8091642    
    142000   0.32181864     0.067014208    0              0.54950646     1.7961486    
    142500   0.31413303     0.06179556     0              0.53276503     1.6883488    
    143000   0.30787865     0.057898344    0              0.51949082     1.6567461    
    143500   0.28957491     0.052052841    0              0.48620312     1.5035201    
    144000   0.27001089     0.045506096    0              0.45032467     1.3949941    
    144500   0.26712918     0.036911512    0              0.43740964     1.2570921    
    145000   0.24489995     0.046141599    0              0.41331216     1.3976112    
    145500   0.22842304     0.037165492    0              0.37963275     1.2474201    
    146000   0.21562141     0.038422102    0              0.36169629     1.2074308    
    146500   0.20061037     0.033870571    0              0.33463919     1.0998105    
    147000   0.1854705      0.028960264    0              0.30703017     1.0067895    
    147500   0.17228793     0.027722565    0              0.28602827     0.97988426   
    148000   0.16018878     0.022714007    0              0.26287986     0.87121041   
    148500   0.14703366     0.018303122    0              0.23874592     0.75409237   
    149000   0.13010515     0.018434322    0              0.21349675     0.76011659   
    149500   0.11677585     0.014094627    0              0.18917287     0.61007535   
    150000   0.10209774     0.012072454    0              0.16514429     0.57052234   
Loop time of 3.81151 on 48 procs for 100000 steps with 2048 atoms

Performance: 22668162.655 tau/day, 26236.299 timesteps/s, 53.732 Matom-step/s
99.5% CPU use with 48 MPI tasks x 1 OpenMP threads

MPI task timing breakdown:
Section |  min time  |  avg time  |  max time  |%varavg| %total
---------------------------------------------------------------
Pair    | 0.12576    | 0.13105    | 0.15395    |   1.5 |  3.44
Neigh   | 0.52645    | 0.53542    | 0.59766    |   1.4 | 14.05
Comm    | 2.0361     | 2.1272     | 2.2848     |   4.3 | 55.81
Output  | 0.04985    | 0.049925   | 0.050724   |   0.1 |  1.31
Modify  | 0.42926    | 0.57983    | 0.65765    |   7.8 | 15.21
Other   |            | 0.3881     |            |       | 10.18

Nlocal:        42.6667 ave          49 max          34 min
Histogram: 1 0 2 2 12 7 12 4 5 3
Nghost:        164.125 ave         175 max         155 min
Histogram: 4 4 5 4 6 8 10 2 2 3
Neighs:        164.792 ave         205 max         124 min
Histogram: 1 1 5 9 11 5 7 5 2 2

Total # of neighbors = 7910
Ave neighs/atom = 3.8623047
Neighbor list builds = 28413
Dangerous builds = 0
Total wall time: 0:00:07
LAMMPS (15 Sep 2022)
OMP_NUM_THREADS environment is not set. Defaulting to 1 thread. (src/comm.cpp:98)
  using 1 OpenMP thread(s) per MPI task
Lattice spacing in x,y,z = 1.6441414 1.6441414 1.6441414
Created orthogonal box = (0 0 0) to (13.153131 13.153131 13.153131)
  3 by 4 by 4 MPI processor grid
Created 2048 atoms
  using lattice units in orthogonal box = (0 0 0) to (13.153131 13.153131 13.153131)
  create_atoms CPU = 0.001 seconds
Generated 0 of 0 mixed pair_coeff terms from geometric mixing rule
Neighbor list info ...
  update: every = 1 steps, delay = 0 steps, check = yes
  max neighbors/atom: 2000, page size: 100000
  master list distance cutoff = 1.3
  ghost atom cutoff = 1.3
  binsize = 0.65, bins = 21 21 21
  1 neighbor lists, perpetual/occasional/extra = 1 0 0
  (1) pair lj/cut, perpetual
      attributes: half, newton on
      pair build: half/bin/atomonly/newton
      stencil: half/bin/3d
      bin: standard
Setting up Verlet run ...
  Unit style    : lj
  Current step  : 0
  Time step     : 0.01
Per MPI rank memory allocation (min/avg/max) = 3.064 | 3.064 | 3.065 Mbytes
   Step          Temp          E_pair         E_mol          TotEng         Press     
         0   3              0              0              4.4978027      2.6986816    
       500   3.1290121      1.3184697      0              6.0096961      17.748845    
      1000   3.0554816      1.3863793      0              5.9673638      18.323196    
      1500   3.0240258      1.4207632      0              5.954587       18.368404    
      2000   3.1039324      1.4171098      0              6.070735       18.427676    
      2500   2.9642085      1.3765264      0              5.8206681      17.94646     
      3000   3.0351908      1.3647418      0              5.9153049      17.886142    
      3500   3.1036134      1.3967083      0              6.0498551      18.309039    
      4000   2.9979403      1.2866026      0              5.7813173      17.295324    
      4500   2.9349897      1.3561769      0              5.7565118      17.949563    
      5000   3.0003939      1.3470141      0              5.8454074      17.761992    
      5500   2.9734041      1.2510164      0              5.7089448      17.075131    
      6000   2.9694781      1.3323323      0              5.7843746      17.744367    
      6500   2.9690288      1.4568667      0              5.9082354      18.673868    
      7000   3.1234787      1.3839499      0              6.0668803      18.3139      
      7500   2.9961941      1.3991758      0              5.8912725      18.269768    
      8000   3.114049       1.3245944      0              5.9933871      17.772962    
      8500   3.0506405      1.2980995      0              5.871826       17.56302     
      9000   2.9882064      1.3374631      0              5.817584       17.716525    
      9500   3.0036442      1.4258517      0              5.9291181      18.4313      
     10000   2.9680657      1.2892023      0              5.739127       17.288389    
     10500   2.9517944      1.3625386      0              5.7880683      17.706169    
     11000   2.9555194      1.3215776      0              5.7526921      17.304193    
     11500   2.9764928      1.3272378      0              5.789797       17.620944    
     12000   3.0525351      1.2531909      0              5.8297578      17.112828    
     12500   3.0021171      1.3458698      0              5.8468467      17.890593    
     13000   3.1110823      1.3743659      0              6.0387108      18.075503    
     13500   3.0056075      1.3163676      0              5.8225774      17.723819    
     14000   2.9837689      1.3897617      0              5.8632297      18.083707    
     14500   3.0130803      1.2716056      0              5.7890193      17.241305    
     15000   2.9738932      1.3522868      0              5.8109484      17.754259    
     15500   3.0171117      1.2921273      0              5.8155851      17.295538    
     16000   3.0377538      1.3158494      0              5.8702551      17.458249    
     16500   3.0879058      1.2978259      0              5.927423       17.525223    
     17000   3.0862658      1.2989834      0              5.9261216      17.61729     
     17500   2.9896177      1.3453071      0              5.8275439      17.809263    
     18000   3.0062168      1.334935       0              5.8420584      17.810522    
     18500   2.9462996      1.2919729      0              5.7092644      17.323268    
     19000   2.9336611      1.4147964      0              5.8131394      18.198857    
     19500   2.9936952      1.2846777      0              5.7730279      17.054889    
     20000   3.0162262      1.272923       0              5.7950532      17.372594    
     20500   3.0231811      1.2852853      0              5.8178428      17.265215    
     21000   2.9869443      1.2959311      0              5.7741599      17.280109    
     21500   2.9095195      1.3700568      0              5.732205       17.822319    
     22000   2.9690153      1.3589351      0              5.8102836      18.104223    
     22500   2.9670995      1.4212382      0              5.8697143      18.50069     
     23000   2.9580005      1.2674888      0              5.7023231      17.110427    
     23500   2.9684744      1.3470025      0              5.79754        17.941034    
     24000   2.9342304      1.300661       0              5.6998575      17.266733    
     24500   2.9746749      1.3484958      0              5.8083295      17.877399    
     25000   3.0543402      1.4108486      0              5.9901218      18.371323    
     25500   2.944088       1.3122045      0              5.7261802      17.592723    
     26000   2.971054       1.3574195      0              5.8118243      17.93846     
     26500   3.0114669      1.2748525      0              5.7898471      17.215322    
     27000   3.0426222      1.2858887      0              5.8475935      17.192254    
     27500   3.0652283      1.3216084      0              5.9172058      17.791726    
     28000   2.9570528      1.2748085      0              5.7082218      17.356764    
     28500   3.0307644      1.2548253      0              5.7987521      16.971611    
     29000   3.059881       1.2488895      0              5.8364699      17.101463    
     29500   2.9863037      1.2986477      0              5.775916       17.524753    
     30000   2.9901602      1.2316904      0              5.7147406      16.743478    
     30500   2.9707937      1.2970238      0              5.7510385      17.525297    
     31000   3.0230057      1.3193882      0              5.8516826      17.593274    
     31500   3.0311022      1.3485964      0              5.8930296      17.789735    
     32000   3.0906467      1.3114964      0              5.9452027      17.603092    
     32500   3.0215167      1.2899614      0              5.8200235      17.22984     
     33000   2.9491969      1.3134153      0              5.7350505      17.413104    
     33500   2.9055298      1.3690277      0              5.7251943      17.946537    
     34000   3.0346353      1.3069512      0              5.8566815      17.511176    
     34500   3.020406       1.3403351      0              5.8687319      17.660752    
     35000   2.9783366      1.3854151      0              5.8507386      18.062983    
     35500   3.0497152      1.3173121      0              5.8896512      17.635126    
     36000   3.0304353      1.3016765      0              5.84511        17.412668    
     36500   3.0246375      1.3731672      0              5.9079082      17.98107     
     37000   2.9809339      1.2999021      0              5.7691195      17.248528    
     37500   2.9620543      1.3084162      0              5.7493282      17.42846     
     38000   2.9714459      1.271437       0              5.7264294      17.065272    
     38500   3.0209931      1.2726909      0              5.8019679      17.198404    
     39000   3.0102197      1.2963493      0              5.8094741      17.29552     
     39500   3.0574597      1.3382118      0              5.922162       17.694116    
     40000   3.0134798      1.3850718      0              5.9030843      18.316853    
     40500   3.0872963      1.2652134      0              5.8938967      17.194245    
     41000   2.9485889      1.3066843      0              5.7274081      17.417255    
     41500   3.0326144      1.2638817      0              5.8105822      17.19124     
     42000   2.9219145      1.2746247      0              5.6553564      17.146147    
     42500   2.965348       1.3126203      0              5.7584703      17.686879    
     43000   3.0018134      1.2740375      0              5.774559       17.413318    
     43500   2.974907       1.3109807      0              5.7711623      17.471329    
     44000   2.9676983      1.2557084      0              5.7050823      17.200449    
     44500   2.9498323      1.336173       0              5.758761       17.613349    
     45000   3.0390959      1.2730873      0              5.8295052      17.129783    
     45500   3.0193375      1.4291756      0              5.9559704      18.490771    
     46000   2.9535134      1.3216065      0              5.7497134      17.696227    
     46500   2.9829503      1.3013568      0              5.7735975      17.450813    
     47000   2.96179        1.2625665      0              5.7030822      17.074465    
     47500   3.0118932      1.2937759      0              5.8094097      17.507304    
     48000   3.0973309      1.3561031      0              5.9998309      18.095579    
     48500   2.9874612      1.3222957      0              5.8012995      17.474577    
     49000   3.0398889      1.3207338      0              5.8783406      17.644056    
     49500   3.0617586      1.3259224      0              5.9163178      17.758411    
     50000   3.045845       1.4047735      0              5.9713102      18.244089    
Loop time of 2.23153 on 48 procs for 50000 steps with 2048 atoms

Performance: 19358895.488 tau/day, 22406.129 timesteps/s, 45.888 Matom-step/s
99.4% CPU use with 48 MPI tasks x 1 OpenMP threads

MPI task timing breakdown:
Section |  min time  |  avg time  |  max time  |%varavg| %total
---------------------------------------------------------------
Pair    | 0.084085   | 0.086128   | 0.094211   |   0.8 |  3.86
Neigh   | 0.40726    | 0.41118    | 0.42214    |   0.4 | 18.43
Comm    | 1.1599     | 1.1999     | 1.2795     |   2.9 | 53.77
Output  | 0.0022561  | 0.0025104  | 0.013227   |   3.1 |  0.11
Modify  | 0.24062    | 0.31618    | 0.35584    |   5.4 | 14.17
Other   |            | 0.2156     |            |       |  9.66

Nlocal:        42.6667 ave          49 max          38 min
Histogram: 6 4 3 11 7 8 2 4 2 1
Nghost:        172.833 ave         183 max         161 min
Histogram: 2 0 4 4 9 15 3 4 2 5
Neighs:            181 ave         212 max         158 min
Histogram: 8 2 8 6 3 9 3 5 1 3

Total # of neighbors = 8688
Ave neighs/atom = 4.2421875
Neighbor list builds = 20260
Dangerous builds = 0
Generated 0 of 0 mixed pair_coeff terms from geometric mixing rule
Setting up Verlet run ...
  Unit style    : lj
  Current step  : 50000
  Time step     : 0.01
Per MPI rank memory allocation (min/avg/max) = 3.106 | 3.107 | 3.107 Mbytes
   Step          Temp          E_pair         E_mol          TotEng         Press     
     50000   3.045845       1.4047735      0              5.9713102      18.244089    
     50500   3.0130269      1.2934673      0              5.8108009      17.351287    
     51000   3.0207389      1.3075335      0              5.8364294      17.640348    
     51500   2.9345967      1.2647055      0              5.6644512      17.119241    
     52000   2.9672614      1.2545938      0              5.7033126      17.020854    
     52500   2.9161356      1.3426094      0              5.7146769      17.584331    
     53000   2.9775402      1.2680087      0              5.7321381      17.042171    
     53500   2.8478231      1.2994375      0              5.5690864      17.242993    
     54000   2.8413459      1.3285966      0              5.5885344      17.523375    
     54500   2.7913632      1.2433066      0              5.428307       16.697266    
     55000   2.8881634      1.2147526      0              5.5448823      16.791498    
     55500   2.9124817      1.2622272      0              5.6288166      17.150067    
     56000   2.8493764      1.2554331      0              5.5274108      16.793189    
     56500   2.8201411      1.3049941      0              5.5331402      17.27265     
     57000   2.7617993      1.1774255      0              5.3181016      16.077113    
     57500   2.7734417      1.2178123      0              5.3759436      16.726511    
     58000   2.8125549      1.190777       0              5.4075495      16.277682    
     58500   2.8104653      1.1683969      0              5.3820364      16.183613    
     59000   2.7563382      1.2542554      0              5.3867439      16.87441     
     59500   2.7199567      1.1886686      0              5.2666115      16.247758    
     60000   2.7735803      1.1289295      0              5.2872685      15.743166    
     60500   2.6601121      1.1810099      0              5.1692297      16.388082    
     61000   2.6599924      1.1789362      0              5.1669766      16.221992    
     61500   2.6229051      1.2018202      0              5.1342567      16.381592    
     62000   2.6636386      1.1144615      0              5.1079685      15.572411    
     62500   2.6352445      1.0633684      0              5.0143051      15.039884    
     63000   2.5880804      1.1123028      0              4.9925279      15.576524    
     63500   2.612836       1.1418832      0              5.0592235      15.738572    
     64000   2.5797749      1.1943364      0              5.0621093      16.270509    
     64500   2.5819956      1.1321389      0              5.0032413      15.474138    
     65000   2.5858495      1.1638144      0              5.0406947      15.848951    
     65500   2.5229816      1.0564734      0              4.839098       14.977812    
     66000   2.5190358      1.0902535      0              4.8669622      15.195572    
     66500   2.501495       1.1100602      0              4.8604705      15.445645    
     67000   2.4323506      1.144639       0              4.7913834      15.809943    
     67500   2.4865507      1.0892988      0              4.8173036      15.155755    
     68000   2.4803514      1.0729878      0              4.7916982      15.018072    
     68500   2.4359659      1.0136493      0              4.665814       14.560703    
     69000   2.3949572      1.0304269      0              4.6211086      14.447139    
     69500   2.4072794      0.99951268     0              4.6086686      14.441818    
     70000   2.3870467      1.0504795      0              4.6293013      14.827621    
     70500   2.3749625      1.0314738      0              4.5921781      14.585571    
     71000   2.3770325      0.99391244     0              4.5577201      14.275273    
     71500   2.3041214      0.99016656     0              4.444661       14.251804    
     72000   2.3502184      1.0039559      0              4.5275622      14.426946    
     72500   2.3182959      1.027015       0              4.5027609      14.602167    
     73000   2.3450897      1.0283684      0              4.5442854      14.703522    
     73500   2.2816407      1.048679       0              4.469469       14.901861    
     74000   2.3456832      0.95663116     0              4.473438       13.996156    
     74500   2.3343932      0.98039961     0              4.4802797      14.06067     
     75000   2.3309919      0.93395334     0              4.4287339      13.823554    
     75500   2.269733       0.98277768     0              4.3857148      14.069398    
     76000   2.192601       0.95930899     0              4.2466045      13.802817    
     76500   2.1904804      0.95433703     0              4.2384533      13.795842    
     77000   2.1758119      0.87471068     0              4.1368349      13.129988    
     77500   2.1996476      0.88855612     0              4.1864165      13.079833    
     78000   2.2265193      0.93727441     0              4.2754226      13.493609    
     78500   2.1892168      0.91729097     0              4.1995127      13.518352    
     79000   2.1119707      0.89849648     0              4.0649057      13.30198     
     79500   2.1427259      0.91411141     0              4.1266308      13.338348    
     80000   2.1523493      0.89908354     0              4.1260311      13.436194    
     80500   2.135838       0.89492548     0              4.0971181      13.302817    
     81000   2.0910923      0.90325463     0              4.0383615      13.220064    
     81500   2.0892258      0.89158373     0              4.0238922      13.202344    
     82000   2.1084         0.85074513     0              4.011801       12.867733    
     82500   2.1071867      0.84909934     0              4.0083361      12.897128    
     83000   2.0471666      0.88504456     0              3.9542951      13.158326    
     83500   2.0561944      0.85317127     0              3.9359569      12.837626    
     84000   1.980431       0.84818131     0              3.8173774      12.741523    
     84500   2.0226874      0.85495957     0              3.8875092      12.717312    
     85000   2.0201872      0.77950188     0              3.8083031      12.109573    
     85500   1.9864422      0.82335226     0              3.8015606      12.501639    
     86000   1.9695133      0.8498236      0              3.8026511      12.712511    
     86500   1.9982626      0.79151193     0              3.7874422      12.096463    
     87000   1.9471256      0.8246005      0              3.7438628      12.357289    
     87500   1.9488082      0.77351569     0              3.6953006      11.941096    
     88000   1.9443256      0.83787991     0              3.7529443      12.698287    
     88500   1.9218022      0.75840221     0              3.6396979      11.736885    
     89000   1.9363357      0.7381032      0              3.6411885      11.573409    
     89500   1.8222416      0.77153316     0              3.5035609      11.904225    
     90000   1.8317388      0.72652925     0              3.4727959      11.506448    
     90500   1.7765376      0.70800742     0              3.3715127      11.224378    
     91000   1.7519801      0.75240458     0              3.3790915      11.681621    
     91500   1.7851714      0.7025609      0              3.3790105      11.100312    
     92000   1.7966234      0.69834296     0              3.3919622      11.298666    
     92500   1.7687414      0.76502334     0              3.41684        11.776469    
     93000   1.7634933      0.7158391      0              3.3597874      11.35894     
     93500   1.7822962      0.68007898     0              3.3522179      10.887527    
     94000   1.7431236      0.71222096     0              3.3256297      11.19482     
     94500   1.74417        0.70574644     0              3.3207239      11.182957    
     95000   1.6881672      0.69353376     0              3.2245481      10.995407    
     95500   1.6609633      0.64005455     0              3.130283       10.504628    
     96000   1.6301283      0.67848984     0              3.1224883      10.683175    
     96500   1.6154401      0.62090115     0              3.0428781      10.244006    
     97000   1.6060693      0.67170057     0              3.0796281      10.764577    
     97500   1.6085937      0.65374892     0              3.0654613      10.56272     
     98000   1.5904627      0.62998196     0              3.0145111      10.37141     
     98500   1.5876686      0.61735046     0              2.9976906      10.311492    
     99000   1.5920022      0.62081475     0              3.007652       10.156305    
     99500   1.5747761      0.63452534     0              2.995536       10.265703    
    100000   1.5248302      0.65749158     0              2.94362        10.508106    
    100500   1.5355715      0.63745134     0              2.939684       10.357027    
    101000   1.5424962      0.65465463     0              2.9672691      10.576825    
    101500   1.5197092      0.60701947     0              2.8854702      10.067095    
    102000   1.5228435      0.57890465     0              2.8620546      9.814729     
    102500   1.4523727      0.56281846     0              2.7403137      9.4567378    
    103000   1.4542352      0.59555279     0              2.7758405      9.9465313    
    103500   1.4533427      0.6243573      0              2.8033068      10.080074    
    104000   1.434652       0.57027723     0              2.7212045      9.530586     
    104500   1.44092        0.58164339     0              2.741968       9.5794703    
    105000   1.4221571      0.54265232     0              2.6748464      9.3670455    
    105500   1.3939218      0.5494991      0              2.6393608      9.3957234    
    106000   1.3276072      0.51588427     0              2.5063227      8.8718373    
    106500   1.3559177      0.52035235     0              2.5532358      9.0642854    
    107000   1.324883       0.53598787     0              2.5223419      9.1389585    
    107500   1.3160607      0.52342387     0              2.496551       9.0856572    
    108000   1.3104351      0.49376596     0              2.4584587      8.5637302    
    108500   1.2887138      0.46678451     0              2.3989114      8.4218837    
    109000   1.2710983      0.49271163     0              2.3984281      8.6034514    
    109500   1.2610215      0.49097254     0              2.3815811      8.6533853    
    110000   1.2589542      0.46912712     0              2.3566363      8.4417226    
    110500   1.2349433      0.47349671     0              2.3250072      8.4311386    
    111000   1.2081333      0.47384353     0              2.2851586      8.3798266    
    111500   1.2008782      0.46175978     0              2.2621975      8.1721976    
    112000   1.1880966      0.46079291     0              2.2420676      8.2452568    
    112500   1.2039252      0.44028372     0              2.2452898      7.8884957    
    113000   1.1772779      0.44353561     0              2.2085903      8.0433628    
    113500   1.1708378      0.43423977     0              2.189639       7.9043981    
    114000   1.1803564      0.46008815     0              2.2297582      8.2060497    
    114500   1.146766       0.42490013     0              2.1442093      7.7557373    
    115000   1.123693       0.4447897      0              2.1295062      8.0609349    
    115500   1.106298       0.44110982     0              2.0997465      7.9243016    
    116000   1.0787798      0.40150995     0              2.0188895      7.5569882    
    116500   1.0663465      0.40760318     0              2.006342       7.528754     
    117000   1.054625       0.38121561     0              1.9623807      7.1169826    
    117500   1.0539394      0.35945133     0              1.9395885      7.014134     
    118000   1.0108336      0.36921968     0              1.8847297      7.0198823    
    118500   1.0202876      0.35069634     0              1.8803805      6.749216     
    119000   1.0101598      0.35986182     0              1.8743617      6.9452385    
    119500   0.99315885     0.32495805     0              1.8139689      6.4851654    
    120000   0.96650969     0.35091457     0              1.7999712      6.78684      
    120500   0.91005472     0.35709943     0              1.721515       6.8287283    
    121000   0.94098472     0.32769446     0              1.7384823      6.4908527    
    121500   0.89455964     0.33687212     0              1.6780564      6.5839503    
    122000   0.91696173     0.30163008     0              1.6764011      6.1538095    
    122500   0.88997767     0.32286566     0              1.6571803      6.3712871    
    123000   0.87293725     0.31519465     0              1.6239612      6.1726755    
    123500   0.85843874     0.29394666     0              1.580976       5.9281101    
    124000   0.83174181     0.2866092      0              1.5336127      5.8882496    
    124500   0.820175       0.31021256     0              1.5398743      6.0901439    
    125000   0.82343802     0.2891353      0              1.5236892      5.9100471    
    125500   0.8307896      0.26650479     0              1.5120807      5.7043186    
    126000   0.7999807      0.2823123      0              1.4816974      5.7357408    
    126500   0.80050599     0.26651149     0              1.4666842      5.5887189    
    127000   0.77200288     0.28008837     0              1.4375273      5.6916553    
    127500   0.76947558     0.27284302     0              1.4264928      5.599844     
    128000   0.73225982     0.26776398     0              1.3656174      5.5321877    
    128500   0.70020857     0.24894288     0              1.2987429      5.3334008    
    129000   0.70437979     0.22159385     0              1.2776476      4.9398623    
    129500   0.68387522     0.21859474     0              1.2439067      4.9141756    
    130000   0.67292432     0.23570354     0              1.2445972      5.1517006    
    130500   0.68890497     0.21197491     0              1.2448278      4.7526634    
    131000   0.64907777     0.20771316     0              1.1808544      4.746408     
    131500   0.63892021     0.20579097     0              1.1637033      4.6015095    
    132000   0.61994252     0.20368737     0              1.1331471      4.581014     
    132500   0.60620993     0.19980949     0              1.1086804      4.5800214    
    133000   0.58002612     0.18801867     0              1.057633       4.3973198    
    133500   0.57141491     0.18941113     0              1.046115       4.3502672    
    134000   0.55904343     0.17532262     0              1.0134783      4.255508     
    134500   0.5480453      0.17299611     0              0.99466266     4.1491931    
    135000   0.55178833     0.16599039     0              0.99326875     3.9789058    
    135500   0.52227053     0.16896261     0              0.95198589     4.0557364    
    136000   0.50356124     0.15713191     0              0.91210494     3.9013285    
    136500   0.48646194     0.14272417     0              0.87206078     3.6863306    
    137000   0.47141511     0.13789052     0              0.84466792     3.51415      
    137500   0.45901628     0.14689444     0              0.83508267     3.6575389    
    138000   0.45573448     0.13489479     0              0.81816272     3.4754294    
    138500   0.43531968     0.13119276     0              0.78385345     3.3475202    
    139000   0.40973579     0.1205555      0              0.73485909     3.1844846    
    139500   0.39866656     0.1170214      0              0.71472925     3.1057184    
    140000   0.39774033     0.098127245    0              0.69444643     2.8427768    
    140500   0.37453425     0.11715237     0              0.67867944     3.0861923    
    141000   0.37185091     0.096572575    0              0.65407658     2.7704226    
    141500   0.35079996     0.093199363    0              0.61914236     2.6598267    
    142000   0.32614704     0.088893161    0              0.57787484     2.597075     
    142500   0.31963917     0.082487797    0              0.56171243     2.4921205    
    143000   0.30538901     0.085518133    0              0.54337797     2.5001545    
    143500   0.28273587     0.073409879    0              0.4973066      2.2951823    
    144000   0.26979458     0.07012312     0              0.47461739     2.1800692    
    144500   0.25978201     0.069552243    0              0.45903498     2.1899246    
    145000   0.24701945     0.05889581     0              0.42924406     1.9846523    
    145500   0.22480638     0.056630927    0              0.39367585     1.920608     
    146000   0.21932974     0.047945353    0              0.37677931     1.7510635    
    146500   0.20512063     0.04530139     0              0.35283211     1.6163509    
    147000   0.18756161     0.042094514    0              0.32329956     1.5704835    
    147500   0.17524733     0.035958589    0              0.29870123     1.4195314    
    148000   0.15820597     0.035430198    0              0.27262327     1.3796145    
    148500   0.14606097     0.027816883    0              0.24680136     1.1767952    
    149000   0.12989077     0.026730807    0              0.22147183     1.1524955    
    149500   0.11564059     0.022195349    0              0.19557154     1.0035288    
    150000   0.10262063     0.016586753    0              0.17044254     0.83267827   
Loop time of 3.971 on 48 procs for 100000 steps with 2048 atoms

Performance: 21757768.535 tau/day, 25182.602 timesteps/s, 51.574 Matom-step/s
99.5% CPU use with 48 MPI tasks x 1 OpenMP threads

MPI task timing breakdown:
Section |  min time  |  avg time  |  max time  |%varavg| %total
---------------------------------------------------------------
Pair    | 0.1504     | 0.1542     | 0.17065    |   1.1 |  3.88
Neigh   | 0.56732    | 0.57521    | 0.58229    |   0.4 | 14.49
Comm    | 2.0937     | 2.1856     | 2.3273     |   4.2 | 55.04
Output  | 0.049497   | 0.049564   | 0.050393   |   0.1 |  1.25
Modify  | 0.47291    | 0.60871    | 0.70142    |   7.4 | 15.33
Other   |            | 0.3977     |            |       | 10.01

Nlocal:        42.6667 ave          47 max          38 min
Histogram: 1 1 7 8 2 11 11 2 3 2
Nghost:        175.292 ave         188 max         164 min
Histogram: 2 4 4 6 9 11 4 4 3 1
Neighs:        191.917 ave         217 max         163 min
Histogram: 1 4 6 3 4 9 7 11 0 3

Total # of neighbors = 9212
Ave neighs/atom = 4.4980469
Neighbor list builds = 28276
Dangerous builds = 0
Total wall time: 0:00:07
LAMMPS (15 Sep 2022)
OMP_NUM_THREADS environment is not set. Defaulting to 1 thread. (src/comm.cpp:98)
  using 1 OpenMP thread(s) per MPI task
Lattice spacing in x,y,z = 1.5874011 1.5874011 1.5874011
Created orthogonal box = (0 0 0) to (12.699208 12.699208 12.699208)
  3 by 4 by 4 MPI processor grid
Created 2048 atoms
  using lattice units in orthogonal box = (0 0 0) to (12.699208 12.699208 12.699208)
  create_atoms CPU = 0.001 seconds
Generated 0 of 0 mixed pair_coeff terms from geometric mixing rule
Neighbor list info ...
  update: every = 1 steps, delay = 0 steps, check = yes
  max neighbors/atom: 2000, page size: 100000
  master list distance cutoff = 1.3
  ghost atom cutoff = 1.3
  binsize = 0.65, bins = 20 20 20
  1 neighbor lists, perpetual/occasional/extra = 1 0 0
  (1) pair lj/cut, perpetual
      attributes: half, newton on
      pair build: half/bin/atomonly/newton
      stencil: half/bin/3d
      bin: standard
Setting up Verlet run ...
  Unit style    : lj
  Current step  : 0
  Time step     : 0.01
Per MPI rank memory allocation (min/avg/max) = 3.064 | 3.065 | 3.065 Mbytes
   Step          Temp          E_pair         E_mol          TotEng         Press     
         0   3              0              0              4.4978027      2.9985352    
       500   3.1688407      1.858749       0              6.6096891      25.889564    
      1000   3.087764       1.8557794      0              6.4851638      25.724906    
      1500   3.085703       1.826079       0              6.4523735      25.686865    
      2000   3.0784131      1.8012483      0              6.4166133      25.227046    
      2500   3.0510546      1.8934535      0              6.4678008      26.065004    
      3000   3.0117512      1.7598865      0              6.2753074      24.886915    
      3500   3.0978108      1.9025932      0              6.5470404      26.18546     
      4000   2.9134737      1.8870483      0              6.2551249      25.884636    
      4500   2.9633632      1.7545835      0              6.1974578      25.04683     
      5000   2.9749205      1.8637228      0              6.3239246      25.603892    
      5500   2.9687725      1.7573276      0              6.2083119      24.4144      
      6000   3.0256512      1.7720443      0              6.3083051      25.017106    
      6500   3.0237283      1.8628664      0              6.3962442      26.025538    
      7000   3.1701731      1.877963       0              6.6309007      25.977699    
      7500   3.0476831      1.796141       0              6.3654334      25.048723    
      8000   2.9988486      1.9036213      0              6.3996978      25.996655    
      8500   3.0884815      1.7532644      0              6.3837246      24.965204    
      9000   2.9662646      1.8906938      0              6.3379182      25.895537    
      9500   3.0132794      1.9225112      0              6.4402232      26.141329    
     10000   2.9894318      1.8006012      0              6.2825594      25.217037    
     10500   3.0038991      1.795299       0              6.2989475      25.012414    
     11000   2.9896294      1.7608738      0              6.2431283      24.939106    
     11500   2.9703281      1.8312902      0              6.2846068      25.51164     
     12000   2.9692262      1.7967086      0              6.2483732      25.151543    
     12500   2.9611669      1.797707       0              6.2372885      25.121898    
     13000   2.9837461      1.8530759      0              6.3265097      25.381625    
     13500   3.0652602      1.7281961      0              6.3238413      24.65463     
     14000   3.0171694      1.8021201      0              6.3256644      25.216111    
     14500   3.0867561      1.7850092      0              6.4128826      25.24688     
     15000   2.9589458      1.8488132      0              6.2850646      25.392935    
     15500   3.0494596      1.7678325      0              6.3397884      24.899798    
     16000   2.8823548      1.7987605      0              6.1201816      25.11755     
     16500   2.9630774      1.7956287      0              6.2380745      24.98843     
     17000   2.9878184      1.7472725      0              6.2268118      24.695273    
     17500   3.0218128      1.7329634      0              6.2634694      24.548587    
     18000   3.0724297      1.7267427      0              6.333137       24.597693    
     18500   2.9555451      1.8406798      0              6.2718327      25.356288    
     19000   2.9021206      1.9006379      0              6.2516932      26.104262    
     19500   2.9517306      1.8489879      0              6.2744219      25.728277    
     20000   3.0261041      1.8559106      0              6.3928504      25.771246    
     20500   2.9566493      1.7617469      0              6.1945554      24.811535    
     21000   3.0680796      1.754675       0              6.3545473      24.820242    
     21500   3.0476476      1.8886677      0              6.4579069      26.021559    
     22000   3.0129463      1.8098259      0              6.3270386      25.23128     
     22500   3.1225352      1.8084452      0              6.489961       25.314906    
     23000   2.9612776      1.8061986      0              6.2459461      25.139685    
     23500   3.0152194      1.7968582      0              6.3174788      25.39415     
     24000   2.9672441      1.7757255      0              6.2244184      24.874979    
     24500   3.0167572      1.7781503      0              6.3010765      24.963572    
     25000   2.950155       1.7614758      0              6.1845475      24.816718    
     25500   2.9950429      1.8035895      0              6.2939602      25.260656    
     26000   2.970496       1.8879582      0              6.3415265      25.837606    
     26500   3.0520446      1.7569649      0              6.3327963      24.894062    
     27000   3.0768241      1.6975677      0              6.3105503      24.37124     
     27500   3.0798889      1.8315263      0              6.4491038      25.671222    
     28000   3.0735635      1.834425       0              6.4425192      25.580146    
     28500   2.9969196      1.7446783      0              6.2378627      24.637182    
     29000   3.0456588      1.7704133      0              6.3366708      25.022758    
     29500   3.0014132      1.7896012      0              6.2895227      25.359221    
     30000   3.0941507      1.8737069      0              6.5126667      25.664911    
     30500   3.0009196      1.7151332      0              6.2143146      24.494468    
     31000   3.0216586      1.7654481      0              6.2957229      24.964557    
     31500   3.0772878      1.8392739      0              6.4529518      25.714976    
     32000   3.0037532      1.7204915      0              6.2239212      24.283658    
     32500   2.9657963      1.8300401      0              6.2765624      25.474647    
     33000   2.9312927      1.7866477      0              6.1814398      25.194926    
     33500   3.021137       1.7331629      0              6.2626557      24.739421    
     34000   3.0150919      1.8015144      0              6.3219439      25.482642    
     34500   2.9905506      1.8306312      0              6.3142667      25.617925    
     35000   3.1062778      1.7425019      0              6.3996435      24.804478    
     35500   2.9523767      1.7654533      0              6.191856       24.659713    
     36000   2.9927904      1.9259671      0              6.4129607      25.913973    
     36500   2.9629339      1.8183489      0              6.2605797      25.414032    
     37000   3.0458839      1.7761379      0              6.3427329      25.056309    
     37500   2.983858       1.8155757      0              6.2891772      25.323062    
     38000   3.0006494      1.9492791      0              6.4480554      26.257943    
     38500   3.033147       1.8267905      0              6.3742896      25.422692    
     39000   3.0178707      1.7662889      0              6.2908846      24.844433    
     39500   2.995615       1.9085742      0              6.3998026      26.399979    
     40000   2.9613711      1.8555635      0              6.2954511      25.488737    
     40500   3.1088532      1.8100408      0              6.4710436      25.641305    
     41000   2.9625503      1.8207042      0              6.2623598      25.47155     
     41500   2.977135       1.7999938      0              6.2635157      24.876498    
     42000   2.9409374      1.8141035      0              6.2233556      25.013727    
     42500   2.9483363      1.8248157      0              6.2451607      25.36818     
     43000   2.9535832      1.8357673      0              6.2639789      25.605235    
     43500   2.9954261      1.7259542      0              6.2168994      24.294361    
     44000   2.9723699      1.8204902      0              6.276868       25.333251    
     44500   2.9324679      1.8148665      0              6.2114205      25.387934    
     45000   2.9267618      1.9354724      0              6.3234715      26.250907    
     45500   2.9587469      1.8240295      0              6.2599829      25.355155    
     46000   3.0104952      1.8706473      0              6.3841852      25.715613    
     46500   2.9810804      1.798542       0              6.2679793      25.180901    
     47000   3.0336381      1.8000134      0              6.3482486      25.461547    
     47500   2.9315477      1.7747562      0              6.1699306      24.853222    
     48000   3.0127674      1.865046       0              6.3819904      25.844227    
     48500   3.0855192      1.8020002      0              6.4280192      25.543202    
     49000   3.0821538      1.7068857      0              6.3278589      24.56865     
     49500   3.1125792      1.8803362      0              6.5469253      25.930112    
     50000   3.0408759      1.6786396      0              6.2377262      24.107388    
Loop time of 2.25412 on 48 procs for 50000 steps with 2048 atoms

Performance: 19164874.527 tau/day, 22181.568 timesteps/s, 45.428 Matom-step/s
99.4% CPU use with 48 MPI tasks x 1 OpenMP threads

MPI task timing breakdown:
Section |  min time  |  avg time  |  max time  |%varavg| %total
---------------------------------------------------------------
Pair    | 0.098581   | 0.105      | 0.11828    |   1.7 |  4.66
Neigh   | 0.43623    | 0.44367    | 0.45533    |   0.5 | 19.68
Comm    | 1.1517     | 1.2012     | 1.2805     |   2.9 | 53.29
Output  | 0.0022522  | 0.0025091  | 0.012944   |   3.0 |  0.11
Modify  | 0.21885    | 0.29324    | 0.33221    |   5.4 | 13.01
Other   |            | 0.2085     |            |       |  9.25

Nlocal:        42.6667 ave          48 max          37 min
Histogram: 3 1 2 9 6 7 12 5 1 2
Nghost:        186.375 ave         203 max         176 min
Histogram: 4 8 4 9 10 5 5 2 0 1
Neighs:        204.792 ave         246 max         170 min
Histogram: 4 2 4 9 8 9 7 2 2 1

Total # of neighbors = 9830
Ave neighs/atom = 4.7998047
Neighbor list builds = 20224
Dangerous builds = 0
Generated 0 of 0 mixed pair_coeff terms from geometric mixing rule
Setting up Verlet run ...
  Unit style    : lj
  Current step  : 50000
  Time step     : 0.01
Per MPI rank memory allocation (min/avg/max) = 3.107 | 3.107 | 3.108 Mbytes
   Step          Temp          E_pair         E_mol          TotEng         Press     
     50000   3.0408759      1.6786396      0              6.2377262      24.107388    
     50500   2.9572706      1.815716       0              6.249456       25.366044    
     51000   2.9472221      1.7960665      0              6.2147411      25.006001    
     51500   2.9402886      1.7796133      0              6.1878927      24.853697    
     52000   3.0065747      1.7248845      0              6.2325445      24.452314    
     52500   2.9842622      1.8897457      0              6.3639532      25.991681    
     53000   2.9380624      1.7428429      0              6.1477846      24.674633    
     53500   2.9990984      1.8286299      0              6.3250808      25.57598     
     54000   2.8517204      1.714338       0              5.98983        24.259563    
     54500   2.845014       1.7030891      0              5.9685263      24.375322    
     55000   2.9128054      1.7236302      0              6.0907049      24.534603    
     55500   2.8322674      1.8003921      0              6.0467188      25.052193    
     56000   2.9147557      1.7792393      0              6.149238       24.996522    
     56500   2.7572959      1.8026991      0              5.9366234      25.039764    
     57000   2.8882679      1.7436198      0              6.0739063      24.492367    
     57500   2.7975153      1.6047066      0              5.7989306      23.381298    
     58000   2.7750752      1.6366749      0              5.7972552      23.567493    
     58500   2.7500946      1.648346       0              5.7714736      23.77858     
     59000   2.7804593      1.5927009      0              5.7613534      23.31075     
     59500   2.7274111      1.6030651      0              5.6921843      23.137327    
     60000   2.7539612      1.5541359      0              5.6830606      22.669839    
     60500   2.6459866      1.6264454      0              5.5934874      23.253325    
     61000   2.6013622      1.647596       0              5.547734       23.498038    
     61500   2.6133339      1.6084305      0              5.5265173      23.018677    
     62000   2.6673789      1.5132788      0              5.5123935      22.52275     
     62500   2.6504484      1.4831182      0              5.4568495      21.866008    
     63000   2.5932438      1.6778525      0              5.5658188      23.815602    
     63500   2.7094979      1.6181257      0              5.680388       23.402609    
     64000   2.5487587      1.600107       0              5.4213783      22.994022    
     64500   2.5195999      1.6121514      0              5.3897058      23.204828    
     65000   2.5221002      1.5321995      0              5.3135026      22.311468    
     65500   2.5377188      1.5168799      0              5.3215994      22.444675    
     66000   2.5597225      1.465347       0              5.3030559      21.689086    
     66500   2.5060382      1.4933063      0              5.2505281      21.848516    
     67000   2.5233587      1.5348107      0              5.3180006      22.45075     
     67500   2.5433038      1.4222323      0              5.2353252      21.368784    
     68000   2.4728905      1.4648086      0              5.1723331      21.768656    
     68500   2.4801592      1.4231252      0              5.1415474      21.350583    
     69000   2.4332328      1.421963       0              5.0700301      21.11725     
     69500   2.4067767      1.3842251      0              4.9926273      20.90396     
     70000   2.3826578      1.3583069      0              4.9305485      20.522246    
     70500   2.3819567      1.4281093      0              4.9992998      21.165793    
     71000   2.3925435      1.3901595      0              4.9772224      21.014575    
     71500   2.4384962      1.3766157      0              5.032574       20.771376    
     72000   2.423975       1.4015398      0              5.0357269      20.938802    
     72500   2.3857173      1.5109259      0              5.0877544      21.778438    
     73000   2.3389255      1.4254979      0              4.932173       21.100451    
     73500   2.4036092      1.3720731      0              4.9757265      20.879216    
     74000   2.3347609      1.3588203      0              4.8592517      20.573594    
     74500   2.3277852      1.3644797      0              4.8544526      20.413591    
     75000   2.285187       1.3738828      0              4.7999896      20.670148    
     75500   2.2533425      1.3958615      0              4.7742249      20.827185    
     76000   2.3275842      1.2843101      0              4.7739816      19.631309    
     76500   2.304237       1.2764057      0              4.7310736      19.746962    
     77000   2.2162308      1.3223714      0              4.6450945      19.951298    
     77500   2.2487474      1.2373206      0              4.6087946      19.385276    
     78000   2.2164623      1.2669473      0              4.5900173      19.601135    
     78500   2.2317883      1.2915843      0              4.6376321      19.903672    
     79000   2.1887119      1.2711011      0              4.5525658      19.689878    
     79500   2.1792994      1.2562031      0              4.5235561      19.30909     
     80000   2.1343387      1.2606713      0              4.4606161      19.674767    
     80500   2.1187086      1.2160956      0              4.3926068      18.965699    
     81000   2.0918411      1.2122475      0              4.3484771      18.956091    
     81500   2.060079       1.1918346      0              4.2804443      18.480975    
     82000   2.0392319      1.2098749      0              4.2672292      18.879859    
     82500   2.0327677      1.2154558      0              4.2631185      19.003654    
     83000   2.0158244      1.1434407      0              4.1657009      18.315534    
     83500   2.0584121      1.1285862      0              4.2146968      18.123935    
     84000   2.0367077      1.1633543      0              4.2169242      18.531623    
     84500   2.0203189      1.1265833      0              4.1555818      17.979695    
     85000   1.9854344      1.2517729      0              4.2284703      19.007772    
     85500   1.9701677      1.1314951      0              4.0853037      17.955214    
     86000   1.9756769      1.1102155      0              4.0722838      17.87231     
     86500   1.9565965      1.0992498      0              4.0327115      17.581945    
     87000   1.9868233      1.1107653      0              4.089545       17.989524    
     87500   1.9920504      1.0695846      0              4.0562013      17.527802    
     88000   1.9643961      1.0878661      0              4.0330215      17.612256    
     88500   1.8794863      1.0816954      0              3.8995483      17.401961    
     89000   1.8986489      1.0513084      0              3.8978912      17.108399    
     89500   1.8817371      1.0439041      0              3.8651314      17.092157    
     90000   1.8498135      1.0412904      0              3.8146558      17.07013     
     90500   1.876239       1.0471052      0              3.8600895      16.918233    
     91000   1.7890427      1.0196999      0              3.7019536      16.805       
     91500   1.8035741      1.0078821      0              3.7119223      16.628712    
     92000   1.7658224      0.98212958     0              3.6295698      16.371093    
     92500   1.7204321      0.97278088     0              3.5521689      16.188482    
     93000   1.735311       0.96509164     0              3.5667871      16.100203    
     93500   1.7044423      0.95812999     0              3.5135451      15.974665    
     94000   1.69944        0.9677192      0              3.5156344      16.098237    
     94500   1.7411935      0.94327002     0              3.5537849      15.828479    
     95000   1.7339847      0.94117139     0              3.5408785      15.780302    
     95500   1.7086518      1.0028226      0              3.5645488      16.643413    
     96000   1.68911        0.96334236     0              3.4957702      15.938339    
     96500   1.6426128      0.97402303     0              3.4367392      16.226643    
     97000   1.6055235      0.91269098     0              3.3198003      15.386181    
     97500   1.6214418      0.91900601     0              3.3499811      15.455562    
     98000   1.6212033      0.8653376      0              3.2959551      15.034167    
     98500   1.5728386      0.92805911     0              3.286165       15.586306    
[...]
     54500   2.9846854      5.7584079      0              10.23325       112.84054    
     55000   2.8946771      5.8717937      0              10.211689      114.02389    
     55500   2.9303941      5.7762649      0              10.16971       112.79229    
     56000   2.8717985      5.7877791      0              10.093374      112.83899    
     56500   2.8595723      5.7616069      0              10.048871      112.57987    
     57000   2.861367       5.6834563      0              9.9734111      111.64029    
     57500   2.872935       5.5786023      0              9.8859006      110.36273    
     58000   2.8381284      5.6295504      0              9.8846643      111.48907    
     58500   2.7843701      5.5970448      0              9.7715607      110.52533    
     59000   2.8293772      5.6300314      0              9.872025       111.05698    
     59500   2.7781471      5.5520261      0              9.7172119      109.91302    
     60000   2.8051497      5.5194793      0              9.7251492      109.54205    
     60500   2.7152878      5.5997921      0              9.670735       110.78371    
     61000   2.6970475      5.4611366      0              9.5047325      109.19442    
     61500   2.7519634      5.4498077      0              9.5757371      108.91054    
     62000   2.7155793      5.4326287      0              9.5040087      108.79088    
     62500   2.6456837      5.4834619      0              9.4500497      109.0464     
     63000   2.658256       5.4176635      0              9.4031004      108.27634    
     63500   2.6302426      5.4094608      0              9.3528981      108.42806    
     64000   2.622857       5.4029082      0              9.3352726      108.3256     
     64500   2.6143767      5.3095784      0              9.2292286      107.08707    
     65000   2.5941427      5.3630283      0              9.2523423      107.85283    
     65500   2.5889646      5.2242646      0              9.1058153      106.49684    
     66000   2.5540377      5.3007686      0              9.1299545      106.76675    
     66500   2.5658234      5.2317874      0              9.0786432      105.90538    
     67000   2.5095234      5.2491265      0              9.0115736      106.42656    
     67500   2.4892996      5.2284148      0              8.960541       106.32505    
     68000   2.5039478      5.1530629      0              8.9071506      105.15664    
     68500   2.4930367      5.1640951      0              8.9018242      105.14715    
     69000   2.5623769      4.9587414      0              8.8004299      103.18347    
     69500   2.4855288      5.0943627      0              8.8208354      104.60213    
     70000   2.378651       5.170705       0              8.7369393      105.12885    
     70500   2.399371       5.0819365      0              8.6792356      103.96326    
     71000   2.4524326      4.9882104      0              8.665063       103.6093     
     71500   2.407941       4.9946138      0              8.6047616      103.21142    
     72000   2.3760212      4.9841465      0              8.5464381      102.68946    
     72500   2.3407394      5.0014274      0              8.510822       103.37458    
     73000   2.3489077      4.9429563      0              8.4645975      102.91551    
     73500   2.3429011      4.9150803      0              8.427716       102.30962    
     74000   2.3275019      4.8771412      0              8.3666893      101.93415    
     74500   2.3257886      4.7922021      0              8.2791816      100.83436    
     75000   2.2407178      4.8624463      0              8.2218818      101.58199    
     75500   2.3478983      4.7200443      0              8.2401721      99.930507    
     76000   2.2772492      4.8072617      0              8.2214676      101.06705    
     76500   2.2409313      4.7470592      0              8.1068148      100.07507    
     77000   2.2192075      4.7677572      0              8.0949431      100.54303    
     77500   2.220841       4.7002154      0              8.0298502      99.638831    
     78000   2.209102       4.6752563      0              7.9872913      99.322482    
     78500   2.211126       4.6159224      0              7.9309919      98.507525    
     79000   2.1853474      4.5801248      0              7.8565454      98.109359    
     79500   2.1984428      4.5524182      0              7.8484721      97.974559    
     80000   2.0912933      4.675775       0              7.8111832      99.153441    
     80500   2.1404959      4.5297668      0              7.738943       97.601501    
     81000   2.0907584      4.5710204      0              7.7056268      97.872666    
     81500   2.100592       4.4556341      0              7.6049835      96.636086    
     82000   2.0439907      4.4254821      0              7.4899711      96.143012    
     82500   2.0493625      4.5042822      0              7.576825       97.156129    
     83000   2.0336096      4.2773368      0              7.3262618      94.230371    
     83500   2.045584       4.4636812      0              7.530559       96.710366    
     84000   1.9708365      4.3136893      0              7.2685006      94.733256    
     84500   2.0269255      4.2317147      0              7.2706183      93.940395    
     85000   2.0002148      4.2662416      0              7.2650988      94.198973    
     85500   2.0067909      4.234918       0              7.2436346      93.652483    
     86000   1.9852555      4.2166248      0              7.193054       93.765783    
     86500   1.8940377      4.2299567      0              7.0696261      93.813161    
     87000   1.9349953      4.2808378      0              7.1819136      94.3151      
     87500   1.8693584      4.1497073      0              6.9523757      92.692904    
     88000   1.8929223      4.1879313      0              7.0259284      92.8549      
     88500   1.8780113      4.0992096      0              6.914851       92.230196    
     89000   1.9188059      4.1626229      0              7.0394264      92.903244    
     89500   1.8250151      4.110453       0              6.846639       92.22305     
     90000   1.9010941      4.0473506      0              6.8975994      91.595604    
     90500   1.8750687      3.9954114      0              6.8066411      90.65411     
     91000   1.8150146      4.0404152      0              6.7616078      91.339512    
     91500   1.841379       4.007802       0              6.7685219      90.621587    
     92000   1.7940521      3.9849524      0              6.6747165      90.769795    
     92500   1.7362516      4.0264362      0              6.6295419      91.027071    
     93000   1.7674197      3.9691522      0              6.6189872      90.5722      
     93500   1.7388916      3.9620849      0              6.5691488      90.069309    
     94000   1.7261914      3.8625803      0              6.4506031      89.163569    
     94500   1.7091003      3.8948048      0              6.4572035      89.341685    
     95000   1.6648471      3.9056792      0              6.4017304      89.291821    
     95500   1.7100885      3.839017       0              6.4028972      88.704003    
     96000   1.652611       3.7976444      0              6.2753506      87.787702    
     96500   1.6665071      3.7124504      0              6.2109905      87.104998    
     97000   1.6319844      3.7719363      0              6.2187176      87.807793    
     97500   1.5658572      3.7099576      0              6.0575966      86.897022    
     98000   1.5951086      3.7004457      0              6.0919403      86.920541    
     98500   1.5876812      3.6725327      0              6.0528916      86.610894    
     99000   1.6000724      3.6288405      0              6.0277772      85.84439     
     99500   1.5668927      3.5350996      0              5.884291       84.766262    
    100000   1.514056       3.6918296      0              5.9618047      86.514775    
    100500   1.5150173      3.54565        0              5.8170664      84.998511    
    101000   1.4993003      3.5561452      0              5.8039976      85.000433    
    101500   1.5078702      3.5180897      0              5.7787906      84.706483    
    102000   1.4938257      3.4409944      0              5.6806389      83.449548    
    102500   1.4857177      3.4967985      0              5.7242869      84.131422    
    103000   1.4235832      3.4417859      0              5.576118       83.688253    
    103500   1.4671028      3.4353486      0              5.6349282      83.545426    
    104000   1.4013736      3.3640371      0              5.4650711      82.608073    
    104500   1.4335272      3.3669704      0              5.5162114      82.6705      
    105000   1.400476       3.3134714      0              5.4131596      81.82688     
    105500   1.3837362      3.3789321      0              5.4535229      82.608653    
    106000   1.3383726      3.2752955      0              5.2818741      81.051218    
    106500   1.3614725      3.3117554      0              5.352967       81.647567    
    107000   1.3162057      3.2562017      0              5.2295462      81.087259    
    107500   1.3339791      3.2471335      0              5.2471252      80.856127    
    108000   1.3361818      3.2074569      0              5.210751       80.39103     
    108500   1.29934        3.2026981      0              5.1507564      80.358586    
    109000   1.2657316      3.1893503      0              5.0870206      80.060994    
    109500   1.2928476      3.1289621      0              5.0672865      79.311059    
    110000   1.3107931      3.1226495      0              5.087879       79.295853    
    110500   1.2368307      3.0946161      0              4.9489563      78.827814    
    111000   1.2775499      3.0977817      0              5.013171       78.980951    
    111500   1.2064296      3.0656671      0              4.8744279      78.300907    
    112000   1.2268033      3.0466214      0              4.8859278      78.231484    
    112500   1.1688079      3.0215513      0              4.7739071      77.688455    
    113000   1.1668707      2.9956407      0              4.7450921      77.504379    
    113500   1.1381293      2.9870149      0              4.6933753      77.34512     
    114000   1.1336438      2.9730525      0              4.6726879      77.196811    
    114500   1.1444048      2.9206467      0              4.6364158      76.5571      
    115000   1.0977578      2.9190372      0              4.5648699      76.385159    
    115500   1.0673359      2.9025464      0              4.5027685      76.303422    
    116000   1.082372       2.8220605      0              4.4448257      75.096698    
    116500   1.0464671      2.8181775      0              4.3871117      75.128079    
    117000   1.0519423      2.7792798      0              4.3564228      74.696588    
    117500   1.0632852      2.75943        0              4.353579       74.152116    
    118000   1.0078695      2.7629689      0              4.274035       74.116226    
    118500   1.0141979      2.7190787      0              4.2396328      73.766739    
    119000   0.98935489     2.7001414      0              4.1834491      73.475375    
    119500   0.98141158     2.7164198      0              4.1878184      73.463219    
    120000   0.96773594     2.6312322      0              4.0821274      72.485046    
    120500   0.96640021     2.6310628      0              4.0799553      72.433737    
    121000   0.92774751     2.6044877      0              3.9954294      72.015907    
    121500   0.95120756     2.6031903      0              4.029305       72.179269    
    122000   0.90989773     2.5015515      0              3.8657317      70.792508    
    122500   0.92255362     2.5252748      0              3.9084295      71.032022    
    123000   0.88177878     2.4436738      0              3.7656961      69.970335    
    123500   0.85822964     2.5070662      0              3.793782       70.850854    
    124000   0.84407452     2.4400662      0              3.7055598      69.907894    
    124500   0.8654365      2.3821644      0              3.6796852      69.0658      
    125000   0.84462429     2.3804306      0              3.6467485      69.052564    
    125500   0.80322647     2.3469478      0              3.5511992      68.562904    
    126000   0.81979416     2.3513758      0              3.5804666      68.605119    
    126500   0.77286074     2.3148936      0              3.4736186      68.077635    
    127000   0.77411671     2.351025       0              3.5116331      68.553636    
    127500   0.74583224     2.260741       0              3.3789431      67.38946     
    128000   0.74723042     2.242419       0              3.3627173      67.111854    
    128500   0.71953706     2.2157541      0              3.2945327      66.710417    
    129000   0.71092979     2.1877953      0              3.2536693      66.200341    
    129500   0.68191296     2.1863806      0              3.2087506      66.24643     
    130000   0.69359979     2.1733657      0              3.2132574      66.092005    
    130500   0.64762074     2.1301971      0              3.1011538      65.537054    
    131000   0.63642184     2.0822213      0              3.0363879      64.720232    
    131500   0.64158385     2.0586714      0              3.0205772      64.481586    
    132000   0.61228417     1.9987799      0              2.9167577      63.67302     
    132500   0.60022882     2.0007331      0              2.9006367      63.746062    
    133000   0.59318456     1.9697342      0              2.8590765      63.284269    
    133500   0.59289976     1.934824       0              2.8237394      62.728491    
    134000   0.55573748     1.9426425      0              2.7758417      62.818598    
    134500   0.54874714     1.9176976      0              2.7404164      62.451647    
    135000   0.53873674     1.8770662      0              2.6847767      61.894092    
    135500   0.52293829     1.8600409      0              2.6440653      61.684766    
    136000   0.50159099     1.8332351      0              2.5852542      61.325479    
    136500   0.50035236     1.8077912      0              2.5579533      60.853358    
    137000   0.48258395     1.7594693      0              2.4829918      60.276504    
    137500   0.46419006     1.7455835      0              2.4415286      60.093819    
    138000   0.45380798     1.7034077      0              2.3837873      59.543463    
    138500   0.4372972      1.7042519      0              2.3598774      59.51313     
    139000   0.42523389     1.6554596      0              2.292999       58.860906    
    139500   0.4085969      1.644334       0              2.2569301      58.725499    
    140000   0.38660319     1.6167728      0              2.1963944      58.365235    
    140500   0.38127142     1.5902601      0              2.161888       57.93388     
    141000   0.35794115     1.5823411      0              2.1189906      57.8158      
    141500   0.34843798     1.5448118      0              2.0672136      57.403889    
    142000   0.33041338     1.5274255      0              2.0228036      57.086484    
    142500   0.3188695      1.4961596      0              1.9742303      56.658858    
    143000   0.31147437     1.4586145      0              1.9255979      56.224375    
    143500   0.29246427     1.4395925      0              1.8780747      56.017909    
    144000   0.27678235     1.4159843      0              1.8309551      55.683285    
    144500   0.26434042     1.3856803      0              1.7819973      55.301558    
    145000   0.25290524     1.3575726      0              1.7367452      54.909847    
    145500   0.2353923      1.3345124      0              1.6874284      54.617995    
    146000   0.21849116     1.3124798      0              1.6400565      54.349864    
    146500   0.20713829     1.2818108      0              1.5923666      53.982818    
    147000   0.18567127     1.2670088      0              1.5453797      53.782437    
    147500   0.17471125     1.2375996      0              1.4995386      53.494371    
    148000   0.16080833     1.2110029      0              1.4520976      53.204813    
    148500   0.14794703     1.1834385      0              1.4052507      52.892598    
    149000   0.13306004     1.1588709      0              1.3583635      52.629695    
    149500   0.1136858      1.1418759      0              1.3123213      52.460334    
    150000   0.10390131     1.1091943      0              1.2649701      52.161352    
Loop time of 3.85169 on 48 procs for 100000 steps with 2048 atoms

Performance: 22431718.935 tau/day, 25962.638 timesteps/s, 53.171 Matom-step/s
99.5% CPU use with 48 MPI tasks x 1 OpenMP threads

MPI task timing breakdown:
Section |  min time  |  avg time  |  max time  |%varavg| %total
---------------------------------------------------------------
Pair    | 0.29507    | 0.32782    | 0.36921    |   3.1 |  8.51
Neigh   | 0.24941    | 0.35864    | 0.4675     |   9.7 |  9.31
Comm    | 1.9742     | 2.1413     | 2.3843     |   6.6 | 55.59
Output  | 0.039474   | 0.039545   | 0.040388   |   0.1 |  1.03
Modify  | 0.47226    | 0.59601    | 0.69946    |   6.9 | 15.47
Other   |            | 0.3884     |            |       | 10.08

Nlocal:        42.6667 ave          49 max          34 min
Histogram: 1 0 4 6 7 2 13 4 8 3
Nghost:        177.667 ave         187 max         171 min
Histogram: 3 8 4 11 3 6 9 2 1 1
Neighs:        256.042 ave         294 max         205 min
Histogram: 1 0 4 9 5 7 7 8 4 3

Total # of neighbors = 12290
Ave neighs/atom = 6.0009766
Neighbor list builds = 22247
Dangerous builds = 2
Total wall time: 0:00:07
LAMMPS (15 Sep 2022)
OMP_NUM_THREADS environment is not set. Defaulting to 1 thread. (src/comm.cpp:98)
  using 1 OpenMP thread(s) per MPI task
Lattice spacing in x,y,z = 1.3572088 1.3572088 1.3572088
Created orthogonal box = (0 0 0) to (10.85767 10.85767 10.85767)
  3 by 4 by 4 MPI processor grid
Created 2048 atoms
  using lattice units in orthogonal box = (0 0 0) to (10.85767 10.85767 10.85767)
  create_atoms CPU = 0.001 seconds
Generated 0 of 0 mixed pair_coeff terms from geometric mixing rule
Neighbor list info ...
  update: every = 1 steps, delay = 0 steps, check = yes
  max neighbors/atom: 2000, page size: 100000
  master list distance cutoff = 1.3
  ghost atom cutoff = 1.3
  binsize = 0.65, bins = 17 17 17
  1 neighbor lists, perpetual/occasional/extra = 1 0 0
  (1) pair lj/cut, perpetual
      attributes: half, newton on
      pair build: half/bin/atomonly/newton
      stencil: half/bin/3d
      bin: standard
Setting up Verlet run ...
  Unit style    : lj
  Current step  : 0
  Time step     : 0.01
Per MPI rank memory allocation (min/avg/max) = 3.063 | 3.063 | 3.063 Mbytes
   Step          Temp          E_pair         E_mol          TotEng         Press     
         0   3              4.704          0              9.2018027      142.42326    
       500   2.8510099      9.6216206      0              13.896047      186.25958    
ERROR: Lost atoms: original 2048 current 2040 (src/thermo.cpp:481)
Last command: run ${equil_steps}
--------------------------------------------------------------------------
Primary job  terminated normally, but 1 process returned
a non-zero exit code. Per user-direction, the job has been aborted.
--------------------------------------------------------------------------
--------------------------------------------------------------------------
mpirun detected that one or more processes exited with non-zero status, thus causing
the job to be terminated. The first process to do so was:

  Process name: [[57826,1],20]
  Exit code:    1
--------------------------------------------------------------------------
