#     Step Nr.          Time[fs]        Kin.[a.u.]          Temp[K]            Pot.[a.u.]        Cons Qty[a.u.]        UsedTime[s]
         0            0.000000         0.275037913       300.000000000     -1103.036888960     -1102.761851048         0.000000000
         1            0.500000         0.277098730       302.247854759     -1103.040056112     -1102.761910218        91.546635244
         2            1.000000         0.268734190       293.124159801     -1103.047694205     -1102.762098129        16.538993053
         3            1.500000         0.277000372       302.140569855     -1103.059351768     -1102.762385534        28.600991312
         4            2.000000         0.274728317       299.662305454     -1103.067057023     -1102.762527435        21.007888120
         5            2.500000         0.294013029       320.697273628     -1103.074410337     -1102.762607280        21.763980664
         6            3.000000         0.320282201       349.350602089     -1103.078682464     -1102.762593135        18.760202788
         7            3.500000         0.318142651       347.016869515     -1103.078739084     -1102.762433409        24.905881427
         8            4.000000         0.312877260       341.273598260     -1103.076669691     -1102.762210784       248.661305845
         9            4.500000         0.310473350       338.651512280     -1103.075911995     -1102.762077656        20.202803385
        10            5.000000         0.312918379       341.318448844     -1103.078321170     -1102.761999595        21.501554359
        11            5.500000         0.336251157       366.768879440     -1103.089960971     -1102.762100985        14.265139986
        12            6.000000         0.343271302       374.426164429     -1103.102556217     -1102.762352436        12.753051057
        13            6.500000         0.337129936       367.727415511     -1103.115203580     -1102.762698872         9.728706200
        14            7.000000         0.333537269       363.808682597     -1103.122034435     -1102.763113522         8.282227222
        15            7.500000         0.335115991       365.530687458     -1103.118356972     -1102.763288611         8.227558542
        16            8.000000         0.331108998       361.160024918     -1103.109413151     -1102.762944946         8.252159420
        17            8.500000         0.308671632       336.686272964     -1103.095212507     -1102.762028002         8.235931698
        18            9.000000         0.294596582       321.333789623     -1103.090512051     -1102.761699855         8.243054289
        19            9.500000         0.298853483       325.977041050     -1103.097451525     -1102.762540427         8.242578462
        20           10.000000         0.304136496       331.739534005     -1103.106114124     -1102.763214971        10.111633170
        21           10.500000         0.316801602       345.554108502     -1103.110976983     -1102.763280697         9.018372882
        22           11.000000         0.311814398       340.114272041     -1103.109529920     -1102.763083599         8.260838445
        23           11.500000         0.302569029       330.029804931     -1103.105344096     -1102.762932281         9.037530817
        24           12.000000         0.290123352       316.454574947     -1103.101524227     -1102.762875956         9.777903818
        25           12.500000         0.269954875       294.455632193     -1103.096362143     -1102.762823309         9.715989787
        26           13.000000         0.258918013       282.417079104     -1103.090634514     -1102.762781839        11.233341597
        27           13.500000         0.269694661       294.171801482     -1103.086683614     -1102.762739613        11.280753460
        28           14.000000         0.262071191       285.856435909     -1103.086175872     -1102.762720505        11.276371833
        29           14.500000         0.262141268       285.932872469     -1103.090120350     -1102.762765608        11.259907603
        30           15.000000         0.277979247       303.208286445     -1103.094646418     -1102.762803249        14.559165228
        31           15.500000         0.294912793       321.678698725     -1103.099497625     -1102.762823495         9.726206779
        32           16.000000         0.294003005       320.686339749     -1103.104009106     -1102.762848255         9.030240595
        33           16.500000         0.278550666       303.831566027     -1103.107676241     -1102.762879551         9.039704654
        34           17.000000         0.291480958       317.935395321     -1103.113219955     -1102.762968292         8.253525760
        35           17.500000         0.293372632       319.998755298     -1103.118128466     -1102.763078533         8.250816073
        36           18.000000         0.300531510       327.807363585     -1103.123050372     -1102.763271626         7.491211873
        37           18.500000         0.315677606       344.328100197     -1103.122718498     -1102.763389120         7.468309209
        38           19.000000         0.286990692       313.037598250     -1103.115149991     -1102.763246977         7.539071728
        39           19.500000         0.285790963       311.728983972     -1103.106858398     -1102.762854320         7.523317900
        40           20.000000         0.278906153       304.219316484     -1103.108112111     -1102.762672846        12.312036015
        41           20.500000         0.305730322       333.478012545     -1103.119509530     -1102.762997756         7.521625992
        42           21.000000         0.312199417       340.534234355     -1103.133204051     -1102.763473181         7.485140990
        43           21.500000         0.311459182       339.726817142     -1103.143168628     -1102.763700675         7.516194578
        44           22.000000         0.296716376       323.645972935     -1103.148733108     -1102.763717172         8.226679385
        45           22.500000         0.297460948       324.458121165     -1103.148676946     -1102.763633025         8.244119469
        46           23.000000         0.287462275       313.551981590     -1103.147588843     -1102.763562083         8.281991445
        47           23.500000         0.282959688       308.640745320     -1103.148993545     -1102.763572101         8.253953245
        48           24.000000         0.300831815       328.134923778     -1103.151338528     -1102.763596920         8.290908415
        49           24.500000         0.304032772       331.626395756     -1103.153753309     -1102.763594234         8.250834491
        50           25.000000         0.307570143       335.484813408     -1103.155493554     -1102.763597060        10.499832857
        51           25.500000         0.297955628       324.997697337     -1103.156743656     -1102.763562392         8.264259171
        52           26.000000         0.288320794       314.488418864     -1103.161520783     -1102.763631916         8.287295356
        53           26.500000         0.300830298       328.133268764     -1103.164336711     -1102.763696119         7.505913232
        54           27.000000         0.302825960       330.310055252     -1103.167394086     -1102.763747633         7.519240335
        55           27.500000         0.286994919       313.042208540     -1103.169653952     -1102.763736018         7.504928563
        56           28.000000         0.266205718       290.366206496     -1103.171876622     -1102.763728988         7.563067224
        57           28.500000         0.281236548       306.761216003     -1103.173259132     -1102.763743342         7.483577482
        58           29.000000         0.280595663       306.062164738     -1103.169957229     -1102.763615412         7.522791527
        59           29.500000         0.285952103       311.904748659     -1103.167571907     -1102.763505286         7.497885499
        60           30.000000         0.286922178       312.962865590     -1103.167631351     -1102.763467486        10.353010748
        61           30.500000         0.302542884       330.001286933     -1103.171991387     -1102.763574917         7.569231760
        62           31.000000         0.308255652       336.232538846     -1103.174341383     -1102.763623664         7.480133742
        63           31.500000         0.316516882       345.243547876     -1103.174659518     -1102.763607390         7.473666694
        64           32.000000         0.320500004       349.588171913     -1103.173549976     -1102.763555431         7.505642571
        65           32.500000         0.325514831       355.058138440     -1103.171454681     -1102.763517639         7.505702332
        66           33.000000         0.323126596       352.453150160     -1103.165599581     -1102.763369041         7.561344273
        67           33.500000         0.325303327       354.827439341     -1103.163088302     -1102.763289905         7.526145577
        68           34.000000         0.333940115       364.248090688     -1103.163529816     -1102.763325900         7.479855184
        69           34.500000         0.333381437       363.638708267     -1103.166034938     -1102.763384015         7.488875765
        70           35.000000         0.342034627       373.077250430     -1103.167895643     -1102.763374097         9.836075503
        71           35.500000         0.336768849       367.333557255     -1103.168726797     -1102.763341664         7.542800810
        72           36.000000         0.333393798       363.652190395     -1103.171255786     -1102.763352684         7.541667014
        73           36.500000         0.332092775       362.233087917     -1103.173339238     -1102.763368814         7.519557707
        74           37.000000         0.310155472       338.304783989     -1103.175002273     -1102.763416285         7.557567183
        75           37.500000         0.326419126       356.044506139     -1103.178347019     -1102.763513844         7.502461672
        76           38.000000         0.320085637       349.136197924     -1103.179026509     -1102.763473797         7.546668649
        77           38.500000         0.300000471       327.228128031     -1103.178916276     -1102.763378567         7.525367424
        78           39.000000         0.304734994       332.392350610     -1103.179109347     -1102.763312503         7.482872188
        79           39.500000         0.305671578       333.413937568     -1103.180447406     -1102.763292961         7.560477294
        80           40.000000         0.291799779       318.283151723     -1103.182439498     -1102.763317627         9.803746011
        81           40.500000         0.311058814       339.290112075     -1103.185937136     -1102.763431974         7.517797660
        82           41.000000         0.301980051       329.387372318     -1103.187942950     -1102.763514195         7.535804421
        83           41.500000         0.308657039       336.670354982     -1103.188585391     -1102.763578525         7.486771856
        84           42.000000         0.310876506       339.091258301     -1103.187472251     -1102.763584512         7.542934373
        85           42.500000         0.303945865       331.531601397     -1103.182702071     -1102.763489833         7.505261764
        86           43.000000         0.295342348       322.147239870     -1103.181015986     -1102.763420354         7.539254643
        87           43.500000         0.286262600       312.243425354     -1103.181879635     -1102.763447309         7.536765009
        88           44.000000         0.298666124       325.772677066     -1103.184620712     -1102.763553798         7.500510599
        89           44.500000         0.301788183       329.178090063     -1103.186264432     -1102.763641418         7.503968880
        90           45.000000         0.303412943       330.950311523     -1103.186322378     -1102.763666152        10.141876239
        91           45.500000         0.310275433       338.435632423     -1103.186318041     -1102.763620991         7.506834291
        92           46.000000         0.303067494       330.573510756     -1103.182755711     -1102.763470620         7.504073557
        93           46.500000         0.277995244       303.225734752     -1103.178199587     -1102.763299964         7.521859862
        94           47.000000         0.267657237       291.949463888     -1103.177102509     -1102.763243757         7.530561469
        95           47.500000         0.290686552       317.068889795     -1103.182241999     -1102.763344709         7.536107197
        96           48.000000         0.291752579       318.231668049     -1103.188529807     -1102.763460040         7.486137640
        97           48.500000         0.299295179       326.458824334     -1103.193799171     -1102.763540077         7.518438470
        98           49.000000         0.293839458       320.507950014     -1103.196325229     -1102.763580578         7.526679270
        99           49.500000         0.300701780       327.993087272     -1103.193854762     -1102.763506092         7.529216561
       100           50.000000         0.265089703       289.148903323     -1103.190516807     -1102.763429683        10.858480442
       101           50.500000         0.277062810       302.208674600     -1103.188817002     -1102.763352927         7.488259330
       102           51.000000         0.290526230       316.894016981     -1103.187605352     -1102.763294445         7.517663665
       103           51.500000         0.289080176       315.316721150     -1103.185077073     -1102.763223053         7.479926329
       104           52.000000         0.280461797       305.916149699     -1103.184660126     -1102.763255193         7.557212785
       105           52.500000         0.285693053       311.622187052     -1103.186351280     -1102.763348134         7.573386237
       106           53.000000         0.285801494       311.740470262     -1103.189715518     -1102.763464974         7.512331337
       107           53.500000         0.293912131       320.587218102     -1103.192065363     -1102.763545698         7.498691872
       108           54.000000         0.292888726       319.470930494     -1103.194721922     -1102.763624727         6.766825426
       109           54.500000         0.300759850       328.056427933     -1103.196184764     -1102.763651355         7.522581983
       110           55.000000         0.290938225       317.343404131     -1103.193212127     -1102.763576288        10.292764738
       111           55.500000         0.293834747       320.502810536     -1103.189679388     -1102.763510495         7.518821180
       112           56.000000         0.305277077       332.983632665     -1103.186354949     -1102.763460618         7.522239804
       113           56.500000         0.288227551       314.386713404     -1103.183577336     -1102.763419383         7.499514695
       114           57.000000         0.286123078       312.091240528     -1103.182195299     -1102.763394702         7.489724874
       115           57.500000         0.297161461       324.131453504     -1103.181705796     -1102.763360500         7.548803255
       116           58.000000         0.293470530       320.105538390     -1103.181028448     -1102.763310440         7.548938960
       117           58.500000         0.271792581       296.460126395     -1103.184703325     -1102.763391584         7.513549220
       118           59.000000         0.289582668       315.864819024     -1103.189716028     -1102.763492548         6.781520832
       119           59.500000         0.301855203       329.251193528     -1103.191750533     -1102.763555283         6.747705549
       120           60.000000         0.299489258       326.670518044     -1103.191753265     -1102.763522602         9.858348366
       121           60.500000         0.281965096       307.555885327     -1103.191631063     -1102.763476362         6.793252312
       122           61.000000         0.286899314       312.937927135     -1103.193078710     -1102.763486274         6.743573848
       123           61.500000         0.285066632       310.938913269     -1103.196276344     -1102.763550933         6.800137635
       124           62.000000         0.294789769       321.544509006     -1103.197369466     -1102.763571552         6.788450282
       125           62.500000         0.299230897       326.388708635     -1103.198718070     -1102.763565795         6.763487436
       126           63.000000         0.303043757       330.547619405     -1103.199085004     -1102.763466561         6.771768697
       127           63.500000         0.318897310       347.840019497     -1103.201818058     -1102.763437067         6.780043304
       128           64.000000         0.313957704       342.452101740     -1103.201338070     -1102.763401914         6.770506598
       129           64.500000         0.314172962       342.686896557     -1103.202559698     -1102.763426930         6.804329481
       130           65.000000         0.323704112       353.083081171     -1103.204101680     -1102.763492886         9.396656692
       131           65.500000         0.303804827       331.377762995     -1103.204577889     -1102.763524055         6.769815315
       132           66.000000         0.298540526       325.635680809     -1103.203213259     -1102.763527624         6.769912235
       133           66.500000         0.306425390       334.236164553     -1103.196706486     -1102.763402593         6.774471853
       134           67.000000         0.298531634       325.625980996     -1103.190801922     -1102.763282092         6.773349784
       135           67.500000         0.298149226       325.208866656     -1103.186734485     -1102.763179389         6.803355705
       136           68.000000         0.299253988       326.413895150     -1103.184257833     -1102.763109373         6.756612454
       137           68.500000         0.298000456       325.046594038     -1103.184817718     -1102.763114415         6.779713608
       138           69.000000         0.285860984       311.805359141     -1103.186443491     -1102.763184463         6.805586684
       139           69.500000         0.285468303       311.377038989     -1103.189747255     -1102.763302597         6.788299631
       140           70.000000         0.303654706       331.214017259     -1103.195129155     -1102.763496439         9.799379140
       141           70.500000         0.299937373       327.159303830     -1103.197145601     -1102.763616545         6.783337511
       142           71.000000         0.306316575       334.117473816     -1103.193954273     -1102.763626259         6.757690772
       143           71.500000         0.284739653       310.582257455     -1103.186772735     -1102.763513306         6.781468909
       144           72.000000         0.286956854       313.000689488     -1103.180647368     -1102.763330924         6.776432637
       145           72.500000         0.286449928       312.447755018     -1103.173136942     -1102.763092398         6.764458235
       146           73.000000         0.270274307       294.804055300     -1103.171234459     -1102.763054519         6.763847414
       147           73.500000         0.271910760       296.589031306     -1103.173822992     -1102.763197330         6.763002243
       148           74.000000         0.275843366       300.878555194     -1103.178175052     -1102.763369953         6.750567839
       149           74.500000         0.286563714       312.571868651     -1103.182724436     -1102.763518489         6.796642751
       150           75.000000         0.287938916       314.071882465     -1103.187414634     -1102.763640866        10.260493841
       151           75.500000         0.303485805       331.029786046     -1103.191534845     -1102.763710936         6.765492540
       152           76.000000         0.296315883       323.209131510     -1103.192007207     -1102.763630037         7.508015387
       153           76.500000         0.281608733       307.167179728     -1103.189283629     -1102.763459856         6.748705164
       154           77.000000         0.275703770       300.726289259     -1103.185664499     -1102.763300622         6.786604568
       155           77.500000         0.260634590       284.289450725     -1103.187521955     -1102.763314210         6.809166029
       156           78.000000         0.266563817       290.756806881     -1103.190477815     -1102.763355703         6.744118504
       157           78.500000         0.263709135       287.643037504     -1103.196870739     -1102.763461455         7.521183588
       158           79.000000         0.287900588       314.030074899     -1103.203728095     -1102.763605117         7.521313854
       159           79.500000         0.291889705       318.381239705     -1103.207009377     -1102.763650136         6.761270896
       160           80.000000         0.291532145       317.991227818     -1103.205514356     -1102.763634572        10.408047773
       161           80.500000         0.281157729       306.675243136     -1103.201341098     -1102.763552743         7.520826500
       162           81.000000         0.270439067       294.983768800     -1103.193790476     -1102.763389459         7.511508044
       163           81.500000         0.283536249       309.269634396     -1103.188425341     -1102.763277603         6.808159962
       164           82.000000         0.282653976       308.307287034     -1103.184386913     -1102.763196933         7.483756851
       165           82.500000         0.289579200       315.861035913     -1103.181178066     -1102.763155705         7.505662147
       166           83.000000         0.286650170       312.666170759     -1103.182926731     -1102.763211055         7.547640152
       167           83.500000         0.278642769       303.932028889     -1103.183771007     -1102.763220938         7.508391537
       168           84.000000         0.288225440       314.384410890     -1103.185446058     -1102.763271953         7.545104567
       169           84.500000         0.276193761       301.260751649     -1103.185881771     -1102.763302547         7.494006380
       170           85.000000         0.285419700       311.324025327     -1103.185670398     -1102.763297709        11.346874021
       171           85.500000         0.263966819       287.924107981     -1103.184226424     -1102.763250363         7.491198778
       172           86.000000         0.262324383       286.132607107     -1103.184896390     -1102.763230661         7.483463768
       173           86.500000         0.270033232       294.541101354     -1103.187718812     -1102.763267864         7.568810057
       174           87.000000         0.274765640       299.703016197     -1103.190747401     -1102.763280321         7.521693774
       175           87.500000         0.263154590       287.038161899     -1103.194236784     -1102.763310233         7.525753621
       176           88.000000         0.265225169       289.296664439     -1103.198739687     -1102.763343682         7.516387355
       177           88.500000         0.282881953       308.555955579     -1103.205073828     -1102.763423623         6.750078872
       178           89.000000         0.288414458       314.590583539     -1103.208669501     -1102.763412343         6.784563620
       179           89.500000         0.299813947       327.024674942     -1103.212089286     -1102.763405184         6.799353842
       180           90.000000         0.301082154       328.407983255     -1103.215134577     -1102.763422062        10.077450477
       181           90.500000         0.321034075       350.170714579     -1103.219143860     -1102.763537868         7.525657210
       182           91.000000         0.305084459       332.773532259     -1103.223318315     -1102.763658526         7.494518857
       183           91.500000         0.308474150       336.470867444     -1103.223531160     -1102.763649903         6.757483136
       184           92.000000         0.293708592       320.365206411     -1103.222275109     -1102.763613710         7.540122651
       185           92.500000         0.284498949       310.319707421     -1103.219977617     -1102.763596989         7.480912380
       186           93.000000         0.289364542       315.626896451     -1103.216580738     -1102.763549162         7.538882978
       187           93.500000         0.276444799       301.534574066     -1103.212665643     -1102.763489683         7.516038038
       188           94.000000         0.282751451       308.413609151     -1103.209557188     -1102.763424356         6.751638629
       189           94.500000         0.273078901       297.863191573     -1103.208048991     -1102.763424476         7.519645292
       190           95.000000         0.264476912       288.480496602     -1103.205927798     -1102.763403751        10.754190676
       191           95.500000         0.270123272       294.639313184     -1103.205889428     -1102.763428969         6.780683100
       192           96.000000         0.253660046       276.681905414     -1103.209622573     -1102.763525095         6.774662256
       193           96.500000         0.280923444       306.419695247     -1103.208607434     -1102.763487672         6.740646094
       194           97.000000         0.277821590       303.036320232     -1103.207695575     -1102.763465775         7.535501115
       195           97.500000         0.275212785       300.190743172     -1103.205450663     -1102.763392426         6.777011748
       196           98.000000         0.268913188       293.319403070     -1103.202355851     -1102.763325534         6.762916192
       197           98.500000         0.264420274       288.418718719     -1103.201786864     -1102.763336486         6.808528651
       198           99.000000         0.256225052       279.479708780     -1103.201792880     -1102.763327260         6.794705980
       199           99.500000         0.258439763       281.895423416     -1103.201586051     -1102.763292568         7.513753362
       200          100.000000         0.262952537       286.817770810     -1103.199385157     -1102.763216228        10.997951429
       201          100.500000         0.258212010       281.646999829     -1103.196734066     -1102.763154077         7.506081320
       202          101.000000         0.259763075       283.338838004     -1103.197779902     -1102.763190223         7.550774839
       203          101.500000         0.271382579       296.012913048     -1103.198585470     -1102.763186792         7.525513031
       204          102.000000         0.281488725       307.036279413     -1103.202196998     -1102.763208736         7.495848089
       205          102.500000         0.279758900       305.149458055     -1103.206347110     -1102.763248733         7.542690102
       206          103.000000         0.284958838       310.821336372     -1103.212189287     -1102.763360121         7.505652338
       207          103.500000         0.278307551       303.566386273     -1103.217350851     -1102.763478871         6.784095481
       208          104.000000         0.285598145       311.518665959     -1103.219442734     -1102.763547262         7.548684690
       209          104.500000         0.290151314       316.485074474     -1103.219943344     -1102.763552544         6.751632467
       210          105.000000         0.284663917       310.499648104     -1103.217190763     -1102.763491642        10.277502291
       211          105.500000         0.268122183       292.456607766     -1103.213345601     -1102.763342743         6.778750163
       212          106.000000         0.258064385       281.485976408     -1103.210847736     -1102.763182070         6.779961150
       213          106.500000         0.269964279       294.465890036     -1103.212682687     -1102.763136484         6.799222011
       214          107.000000         0.290516596       316.883508444     -1103.218472425     -1102.763261937         6.779971179
       215          107.500000         0.289405809       315.671908454     -1103.226298999     -1102.763488473         6.758328538
       216          108.000000         0.291624533       318.092001050     -1103.234349462     -1102.763711732         6.788410854
       217          108.500000         0.301138892       328.469871049     -1103.238937001     -1102.763811512         6.744477142
       218          109.000000         0.280371718       305.817894758     -1103.237755931     -1102.763752374         6.769939739
       219          109.500000         0.270970968       295.563944233     -1103.234460997     -1102.763655288         7.582341265
       220          110.000000         0.276308497       301.385901186     -1103.232329208     -1102.763570744        10.332052451
       221          110.500000         0.274603856       299.526549519     -1103.233155482     -1102.763548572         7.525805391
       222          111.000000         0.269833251       294.322969918     -1103.234960968     -1102.763530888         6.777093098
       223          111.500000         0.271733817       296.396028427     -1103.236826429     -1102.763520228         6.759075731
       224          112.000000         0.264681073       288.703187358     -1103.238134666     -1102.763563938         6.837827478
       225          112.500000         0.266074294       290.222855331     -1103.242920197     -1102.763691001         6.787594303
       226          113.000000         0.282987696       308.671295201     -1103.245675511     -1102.763728898         6.780526817
       227          113.500000         0.285673982       311.601385282     -1103.247273843     -1102.763681552         6.794130094