ITEM: TIMESTEP
100000
ITEM: NUMBER OF ATOMS
400
ITEM: BOX BOUNDS pp pp pp
0.0000000000000000e+00 2.1693045781865617e+01
0.0000000000000000e+00 2.1693045781865617e+01
-5.4232614454664041e-01 5.4232614454664041e-01
ITEM: ATOMS id type xs ys zs
264 1 0.196518 0.0583325 0.5
340 1 0.195551 0.10925 0.5
164 1 0.399453 0.109534 0.5
348 1 0.370769 0.045195 0.5
33 1 0.308973 0.932996 0.5
146 1 0.402822 0.0121991 0.5
171 1 0.0497306 0.529635 0.5
114 1 0.16742 0.021029 0.5
140 1 0.0454589 0.966269 0.5
102 1 0.416857 0.0653575 0.5
236 1 0.483338 0.700733 0.5
145 1 0.0347083 0.912766 0.5
27 1 0.0633823 0.400792 0.5
223 1 0.0593394 0.0241369 0.5
155 1 0.00380594 0.0713645 0.5
394 1 0.318823 0.0598541 0.5
376 1 0.463756 0.0266937 0.5
163 1 0.100837 0.73284 0.5
307 1 0.109825 0.029612 0.5
190 1 0.0422198 0.607836 0.5
383 1 0.444359 0.11522 0.5
319 1 0.406308 0.820597 0.5
333 1 0.346164 0.977145 0.5
217 1 0.435446 0.601493 0.5
228 1 0.0128793 0.029203 0.5
196 1 0.0518941 0.0845714 0.5
219 1 0.278024 0.149981 0.5
133 1 0.23223 0.14051 0.5
12 1 0.334128 0.131774 0.5
29 1 0.46108 0.0741766 0.5
185 1 0.00185445 0.574001 0.5
7 1 0.0244878 0.833271 0.5
73 1 0.00353366 0.183506 0.5
170 1 0.149637 0.0599513 0.5
66 1 0.111842 0.148164 0.5
191 1 0.143278 0.105943 0.5
117 1 0.454877 0.162866 0.5
35 1 0.451572 0.210861 0.5
106 1 0.0974222 0.200596 0.5
399 1 0.286337 0.0953312 0.5
103 1 0.354361 0.257313 0.5
116 1 0.0218762 0.708165 0.5
71 1 0.450191 0.394045 0.5
341 1 0.101347 0.42559 0.5
109 1 0.000438982 0.883659 0.5
200 1 0.0393808 0.130426 0.5
144 1 0.0587344 0.169018 0.5
108 1 0.0946775 0.104225 0.5
17 1 0.33975 0.177445 0.5
355 1 0.382421 0.202875 0.5
357 1 0.493939 0.562182 0.5
205 1 0.491098 0.778509 0.5
377 1 0.171331 0.303771 0.5
362 1 0.0858107 0.248636 0.5
222 1 0.401788 0.159963 0.5
51 1 0.458628 0.255502 0.5
369 1 0.0348057 0.218314 0.5
159 1 0.144589 0.184588 0.5
293 1 0.30231 0.21472 0.5
115 1 0.147447 0.52643 0.5
96 1 0.0493094 0.652728 0.5
220 1 0.155675 0.234503 0.5
334 1 0.224176 0.227126 0.5
37 1 0.285729 0.25848 0.5
351 1 0.169712 0.148483 0.5
257 1 0.369059 0.323903 0.5
18 1 0.408253 0.246295 0.5
38 1 0.463012 0.312801 0.5
132 1 0.0164461 0.417141 0.5
24 1 0.267945 0.310734 0.5
313 1 0.257003 0.190051 0.5
121 1 0.321459 0.332117 0.5
63 1 0.23908 0.0738992 0.5
207 1 0.0298103 0.36579 0.5
305 1 0.127406 0.274969 0.5
311 1 0.24021 0.36962 0.5
266 1 0.281719 0.399898 0.5
58 1 0.213001 0.180817 0.5
160 1 0.136746 0.389884 0.5
282 1 0.11581 0.325925 0.5
268 1 0.243022 0.272214 0.5
213 1 0.282419 0.35375 0.5
141 1 0.295677 0.447119 0.5
371 1 0.400045 0.403188 0.5
278 1 0.409157 0.302323 0.5
385 1 0.0813276 0.297471 0.5
157 1 0.220792 0.326223 0.5
87 1 0.249963 0.438002 0.5
88 1 0.408266 0.358001 0.5
31 1 0.457216 0.481547 0.5
251 1 0.449542 0.8424 0.5
175 1 0.00119973 0.980317 0.5
67 1 0.102235 0.498518 0.5
229 1 0.190183 0.357112 0.5
204 1 0.35403 0.380849 0.5
138 1 0.366897 0.513378 0.5
393 1 0.39574 0.549272 0.5
91 1 0.196063 0.524374 0.5
192 1 0.209126 0.41409 0.5
181 1 0.336188 0.422663 0.5
331 1 0.479439 0.429658 0.5
107 1 0.0629656 0.452815 0.5
301 1 0.105882 0.54304 0.5
131 1 0.139114 0.47417 0.5
297 1 0.135623 0.61469 0.5
241 1 0.165303 0.424125 0.5
28 1 0.26156 0.483712 0.5
199 1 0.326165 0.480239 0.5
286 1 0.449391 0.529714 0.5
240 1 0.0829369 0.586506 0.5
360 1 0.2924 0.517567 0.5
60 1 0.436045 0.436262 0.5
39 1 0.334526 0.652437 0.5
84 1 0.363133 0.610448 0.5
344 1 0.247945 0.530023 0.5
47 1 0.197897 0.577101 0.5
374 1 0.189156 0.620738 0.5
75 1 0.237262 0.60383 0.5
25 1 0.29058 0.563901 0.5
356 1 0.368311 0.467428 0.5
379 1 0.447343 0.795662 0.5
270 1 0.459589 0.743953 0.5
375 1 0.149359 0.573771 0.5
54 1 0.0905575 0.635694 0.5
137 1 0.179217 0.762041 0.5
263 1 0.349337 0.564596 0.5
366 1 0.400598 0.644305 0.5
234 1 0.476765 0.924212 0.5
361 1 0.021462 0.490609 0.5
112 1 0.244726 0.698974 0.5
188 1 0.320416 0.599702 0.5
153 1 0.292261 0.672197 0.5
19 1 0.499072 0.609775 0.5
165 1 0.055838 0.741954 0.5
178 1 0.121162 0.668404 0.5
187 1 0.200074 0.712973 0.5
209 1 0.22878 0.648651 0.5
342 1 0.280572 0.626641 0.5
80 1 0.215216 0.472763 0.5
279 1 0.317775 0.755107 0.5
44 1 0.0761316 0.689881 0.5
182 1 0.18641 0.667068 0.5
363 1 0.379103 0.687461 0.5
274 1 0.275152 0.77778 0.5
384 1 0.481789 0.357368 0.5
238 1 0.0421399 0.782369 0.5
350 1 0.135137 0.769877 0.5
303 1 0.308978 0.845892 0.5
59 1 0.282211 0.727919 0.5
83 1 0.18191 0.970893 0.5
370 1 0.14934 0.723425 0.5
314 1 0.0682052 0.825284 0.5
129 1 0.166994 0.81734 0.5
92 1 0.40285 0.877149 0.5
21 1 0.33146 0.698449 0.5
315 1 0.447487 0.65305 0.5
338 1 0.117931 0.811241 0.5
237 1 0.168669 0.863929 0.5
158 1 0.218245 0.877896 0.5
322 1 0.0853593 0.779432 0.5
120 1 0.227926 0.757198 0.5
68 1 0.360187 0.831891 0.5
110 1 0.435521 0.699157 0.5
226 1 0.0487817 0.872557 0.5
365 1 0.135508 0.990268 0.5
388 1 0.262598 0.872686 0.5
32 1 0.269895 0.82583 0.5
125 1 0.313564 0.889243 0.5
48 1 0.371109 0.784676 0.5
289 1 0.360612 0.739802 0.5
269 1 0.432482 0.940142 0.5
104 1 0.121098 0.876265 0.5
150 1 0.235624 0.971213 0.5
76 1 0.208131 0.927952 0.5
358 1 0.311624 0.802084 0.5
169 1 0.0851495 0.355473 0.5
166 1 0.227176 0.804378 0.5
389 1 0.258335 0.921746 0.5
318 1 0.359933 0.887329 0.5
400 1 0.410262 0.759152 0.5
343 1 0.444048 0.893651 0.5
61 1 0.315848 0.013646 0.5
105 1 0.0340197 0.320853 0.5
136 1 0.0844767 0.940022 0.5
294 1 0.209477 0.00831701 0.5
323 1 0.139089 0.947233 0.5
41 1 0.272356 0.0342498 0.5
174 1 0.286876 0.973042 0.5
8 1 0.163204 0.909937 0.5
215 1 0.356034 0.0936314 0.5
349 1 0.37542 0.933281 0.5
142 1 0.46534 0.973449 0.5
16 1 0.414679 0.49915 0.5
288 1 0.497383 0.230057 0.5
317 1 0.0844135 0.986109 0.5
328 1 0.0396458 0.272573 0.5
195 1 0.496296 0.882283 0.5
324 1 0.00155244 0.752169 0.5
267 1 0.498566 0.517463 0.5
245 1 0.900806 0.821141 0.5
249 1 0.561262 0.917357 0.5
345 1 0.751508 0.120219 0.5
280 1 0.706733 0.131886 0.5
244 1 0.702662 0.0161565 0.5
168 1 0.904038 0.928032 0.5
299 1 0.99757 0.799961 0.5
208 1 0.617363 0.0212435 0.5
214 1 0.686836 0.0728942 0.5
183 1 0.770505 0.042353 0.5
316 1 0.78966 0.991228 0.5
347 1 0.520504 0.466948 0.5
50 1 0.547866 0.874154 0.5
310 1 0.579878 0.0509498 0.5
321 1 0.661749 0.116757 0.5
189 1 0.666661 0.165164 0.5
262 1 0.83918 0.0811952 0.5
184 1 0.836677 0.990599 0.5
329 1 0.907646 0.00430847 0.5
367 1 0.578072 0.969549 0.5
14 1 0.622904 0.143031 0.5
380 1 0.732405 0.170503 0.5
295 1 0.774818 0.16074 0.5
206 1 0.813087 0.187099 0.5
396 1 0.884692 0.0805155 0.5
346 1 0.918776 0.0503969 0.5
172 1 0.814591 0.0305037 0.5
46 1 0.599244 0.103355 0.5
201 1 0.592671 0.175838 0.5
271 1 0.734976 0.243915 0.5
20 1 0.716565 0.396287 0.5
203 1 0.86046 0.128197 0.5
93 1 0.863079 0.179091 0.5
202 1 0.586717 0.219002 0.5
79 1 0.682896 0.296052 0.5
6 1 0.785104 0.242731 0.5
336 1 0.905753 0.163228 0.5
306 1 0.955267 0.140805 0.5
53 1 0.628313 0.201846 0.5
77 1 0.672734 0.219181 0.5
81 1 0.751779 0.44361 0.5
277 1 0.761304 0.204487 0.5
339 1 0.84842 0.223921 0.5
332 1 0.971253 0.231945 0.5
64 1 0.649433 0.256483 0.5
391 1 0.733552 0.291841 0.5
1 1 0.636792 0.29813 0.5
300 1 0.78538 0.296337 0.5
354 1 0.843554 0.271409 0.5
113 1 0.89622 0.251675 0.5
180 1 0.941144 0.324531 0.5
65 1 0.603678 0.870535 0.5
231 1 0.672438 0.397593 0.5
261 1 0.784763 0.354219 0.5
287 1 0.826736 0.323542 0.5
10 1 0.923712 0.366218 0.5
95 1 0.63232 0.0700789 0.5
147 1 0.70929 0.349995 0.5
302 1 0.614116 0.388099 0.5
290 1 0.857139 0.4868 0.5
139 1 0.888517 0.30983 0.5
283 1 0.829805 0.385595 0.5
45 1 0.538544 0.255993 0.5
97 1 0.967037 0.0449143 0.5
378 1 0.557964 0.381717 0.5
281 1 0.795713 0.430269 0.5
186 1 0.760182 0.39817 0.5
320 1 0.880753 0.354362 0.5
154 1 0.975359 0.844746 0.5
224 1 0.529053 0.345069 0.5
161 1 0.599527 0.259456 0.5
273 1 0.689506 0.446629 0.5
221 1 0.969853 0.380929 0.5
72 1 0.944756 0.949681 0.5
308 1 0.814803 0.93832 0.5
250 1 0.513053 0.388193 0.5
111 1 0.682747 0.492683 0.5
292 1 0.650465 0.348564 0.5
43 1 0.843637 0.439542 0.5
11 1 0.551782 0.0973337 0.5
49 1 0.544587 0.504902 0.5
298 1 0.609325 0.438053 0.5
119 1 0.658496 0.539126 0.5
352 1 0.724445 0.477924 0.5
15 1 0.889016 0.45376 0.5
69 1 0.874297 0.401004 0.5
177 1 0.55166 0.0171952 0.5
55 1 0.55216 0.431849 0.5
390 1 0.58265 0.473111 0.5
368 1 0.61608 0.557049 0.5
247 1 0.81533 0.137333 0.5
90 1 0.918596 0.117687 0.5
397 1 0.548557 0.635468 0.5
193 1 0.648306 0.587605 0.5
167 1 0.821555 0.605484 0.5
335 1 0.806174 0.558434 0.5
359 1 0.932666 0.464755 0.5
94 1 0.903575 0.501137 0.5
89 1 0.931562 0.41894 0.5
135 1 0.985677 0.320896 0.5
149 1 0.632727 0.500956 0.5
291 1 0.794242 0.475376 0.5
74 1 0.994141 0.276171 0.5
82 1 0.701033 0.875135 0.5
42 1 0.941195 0.264693 0.5
260 1 0.547748 0.695562 0.5
122 1 0.588948 0.521069 0.5
143 1 0.577355 0.594844 0.5
2 1 0.868366 0.530138 0.5
232 1 0.982978 0.518481 0.5
235 1 0.983479 0.462466 0.5
194 1 0.6972 0.563277 0.5
337 1 0.766543 0.592082 0.5
210 1 0.853926 0.573171 0.5
13 1 0.94 0.532909 0.5
284 1 0.499822 0.659055 0.5
34 1 0.568481 0.744911 0.5
23 1 0.610965 0.6855 0.5
85 1 0.597532 0.6362 0.5
373 1 0.738867 0.532568 0.5
327 1 0.746143 0.675792 0.5
285 1 0.949662 0.577414 0.5
265 1 0.593413 0.341644 0.5
100 1 0.567308 0.302305 0.5
276 1 0.692926 0.608205 0.5
364 1 0.648392 0.635681 0.5
395 1 0.887456 0.623759 0.5
243 1 0.779276 0.641925 0.5
70 1 0.508154 0.994329 0.5
99 1 0.845636 0.868545 0.5
382 1 0.910966 0.209827 0.5
387 1 0.715707 0.720329 0.5
398 1 0.733272 0.631013 0.5
386 1 0.95087 0.904263 0.5
152 1 0.951535 0.0890186 0.5
212 1 0.542028 0.791549 0.5
98 1 0.671626 0.695581 0.5
272 1 0.697979 0.661393 0.5
52 1 0.787138 0.702388 0.5
148 1 0.857714 0.702713 0.5
3 1 0.843665 0.646542 0.5
56 1 0.565602 0.139298 0.5
57 1 0.619836 0.732718 0.5
326 1 0.593278 0.781793 0.5
225 1 0.932631 0.629746 0.5
22 1 0.991111 0.6184 0.5
26 1 0.975484 0.713749 0.5
248 1 0.521302 0.734129 0.5
156 1 0.506066 0.830202 0.5
254 1 0.672259 0.741167 0.5
296 1 0.799738 0.74725 0.5
30 1 0.908876 0.723715 0.5
253 1 0.99528 0.672428 0.5
216 1 0.942266 0.760225 0.5
130 1 0.802676 0.888355 0.5
309 1 0.572195 0.83269 0.5
227 1 0.754194 0.742071 0.5
5 1 0.944192 0.808095 0.5
258 1 0.623287 0.818976 0.5
246 1 0.673543 0.832077 0.5
162 1 0.768628 0.782641 0.5
259 1 0.896109 0.672835 0.5
179 1 0.849341 0.747088 0.5
239 1 0.789574 0.0831175 0.5
176 1 0.956057 0.184672 0.5
134 1 0.905369 0.566223 0.5
242 1 0.65938 0.790832 0.5
275 1 0.718026 0.768107 0.5
124 1 0.943473 0.673161 0.5
9 1 0.885526 0.771926 0.5
372 1 0.849689 0.825866 0.5
381 1 0.544629 0.20669 0.5
126 1 0.520223 0.944463 0.5
198 1 0.610211 0.933523 0.5
123 1 0.825153 0.789057 0.5
78 1 0.866125 0.0324439 0.5
304 1 0.62904 0.978278 0.5
151 1 0.655167 0.881163 0.5
233 1 0.731143 0.819694 0.5
101 1 0.536763 0.549276 0.5
353 1 0.887914 0.886906 0.5
256 1 0.952065 0.00349255 0.5
218 1 0.661984 0.0303338 0.5
127 1 0.71893 0.931229 0.5
62 1 0.670916 0.931924 0.5
4 1 0.762657 0.906796 0.5
312 1 0.764107 0.858561 0.5
252 1 0.92399 0.859125 0.5
118 1 0.762965 0.950771 0.5
230 1 0.699898 0.969481 0.5
40 1 0.743414 0.0779782 0.5
197 1 0.744547 0.00410234 0.5
330 1 0.796421 0.82471 0.5
211 1 0.859002 0.939655 0.5
36 1 0.997219 0.114975 0.5
255 1 0.51748 0.141726 0.5
86 1 0.526452 0.0560184 0.5
128 1 0.503911 0.294525 0.5
173 1 0.506015 0.0954899 0.5
325 1 0.99176 0.929531 0.5
392 1 0.503465 0.182988 0.5
