ITEM: TIMESTEP
100000
ITEM: NUMBER OF ATOMS
400
ITEM: BOX BOUNDS pp pp pp
0.0000000000000000e+00 2.0000000000000000e+01
0.0000000000000000e+00 2.0000000000000000e+01
-5.0000000000000000e-01 5.0000000000000000e-01
ITEM: ATOMS id type xs ys zs
138 1 0.0600132 0.01783 0.5
162 1 0.0212297 0.0528561 0.5
12 1 0.107166 0.0395777 0.5
361 1 0.0677308 0.0702689 0.5
340 1 0.110651 0.09017 0.5
350 1 0.0287743 0.101027 0.5
142 1 0.0147781 0.147276 0.5
276 1 0.0614072 0.137302 0.5
67 1 0.107765 0.160444 0.5
98 1 0.0530339 0.183271 0.5
393 1 0.00560687 0.211816 0.5
221 1 0.103713 0.209208 0.5
279 1 0.0057304 0.264082 0.5
29 1 0.0508864 0.237066 0.5
10 1 0.0995017 0.263997 0.5
282 1 0.0499271 0.287886 0.5
222 1 0.0999069 0.318487 0.5
31 1 0.0382276 0.338709 0.5
45 1 0.0381725 0.387093 0.5
108 1 0.100502 0.367059 0.5
325 1 0.0809994 0.41162 0.5
6 1 0.0503776 0.448221 0.5
97 1 0.0974491 0.454494 0.5
101 1 0.041741 0.495493 0.5
230 1 0.0867013 0.505417 0.5
205 1 0.0371943 0.553401 0.5
94 1 0.0833098 0.565727 0.5
353 1 0.123693 0.539847 0.5
39 1 0.0379146 0.602533 0.5
198 1 0.0800819 0.631727 0.5
161 1 0.0382403 0.666555 0.5
175 1 0.0848658 0.681022 0.5
131 1 0.0314914 0.715659 0.5
329 1 0.0785467 0.748286 0.5
309 1 0.0313386 0.769923 0.5
38 1 0.113225 0.793655 0.5
23 1 0.0241618 0.826243 0.5
182 1 0.0666042 0.802723 0.5
132 1 0.0637155 0.858601 0.5
252 1 0.110604 0.840692 0.5
337 1 0.016232 0.879885 0.5
160 1 0.101154 0.886783 0.5
199 1 0.0509834 0.928709 0.5
231 1 0.111772 0.934798 0.5
193 1 0.0302176 0.974119 0.5
333 1 0.0759248 0.973648 0.5
331 1 0.12306 0.986668 0.5
298 1 0.161777 0.0147389 0.5
371 1 0.203482 0.0558607 0.5
46 1 0.246909 0.0334521 0.5
332 1 0.158174 0.0766433 0.5
34 1 0.143918 0.125852 0.5
241 1 0.193888 0.111747 0.5
111 1 0.238923 0.132527 0.5
166 1 0.193956 0.162549 0.5
144 1 0.148789 0.185082 0.5
310 1 0.238334 0.18162 0.5
41 1 0.192928 0.211338 0.5
183 1 0.146853 0.233454 0.5
358 1 0.193361 0.260211 0.5
305 1 0.236564 0.23943 0.5
140 1 0.143344 0.288586 0.5
392 1 0.247111 0.28679 0.5
234 1 0.145495 0.342931 0.5
335 1 0.229082 0.337476 0.5
316 1 0.143503 0.392491 0.5
378 1 0.188668 0.367683 0.5
57 1 0.230039 0.392724 0.5
388 1 0.191079 0.41715 0.5
168 1 0.144971 0.443541 0.5
324 1 0.23674 0.442285 0.5
35 1 0.140241 0.491133 0.5
15 1 0.197153 0.470899 0.5
47 1 0.240071 0.490223 0.5
69 1 0.179993 0.519782 0.5
93 1 0.224876 0.541074 0.5
207 1 0.134816 0.591279 0.5
103 1 0.178199 0.566706 0.5
312 1 0.222462 0.590429 0.5
359 1 0.174389 0.621597 0.5
36 1 0.131001 0.656433 0.5
148 1 0.222607 0.63975 0.5
5 1 0.180992 0.674176 0.5
255 1 0.226287 0.697438 0.5
88 1 0.145329 0.70431 0.5
237 1 0.188894 0.730066 0.5
399 1 0.143375 0.754146 0.5
147 1 0.238304 0.745688 0.5
116 1 0.186608 0.780797 0.5
113 1 0.244205 0.79444 0.5
22 1 0.153867 0.819883 0.5
123 1 0.207137 0.82642 0.5
66 1 0.246292 0.851627 0.5
302 1 0.152184 0.875705 0.5
115 1 0.200338 0.878752 0.5
95 1 0.166772 0.922776 0.5
125 1 0.213415 0.937599 0.5
225 1 0.180183 0.96932 0.5
50 1 0.218027 0.998766 0.5
271 1 0.284877 0.00391644 0.5
280 1 0.331963 0.0189147 0.5
254 1 0.290242 0.0536482 0.5
110 1 0.25089 0.0839649 0.5
124 1 0.342944 0.0799508 0.5
226 1 0.296781 0.103237 0.5
141 1 0.28568 0.150715 0.5
290 1 0.331652 0.136388 0.5
323 1 0.335549 0.184589 0.5
212 1 0.286732 0.209058 0.5
4 1 0.336953 0.23171 0.5
369 1 0.285769 0.257657 0.5
240 1 0.335894 0.286923 0.5
126 1 0.289981 0.312738 0.5
318 1 0.277227 0.363274 0.5
76 1 0.329046 0.339889 0.5
155 1 0.367529 0.365973 0.5
313 1 0.32275 0.388821 0.5
62 1 0.28007 0.417903 0.5
180 1 0.36447 0.416124 0.5
375 1 0.321594 0.442714 0.5
300 1 0.283636 0.46972 0.5
239 1 0.32703 0.493458 0.5
133 1 0.372138 0.47123 0.5
261 1 0.284107 0.517851 0.5
86 1 0.265502 0.56505 0.5
363 1 0.332272 0.545309 0.5
84 1 0.317882 0.592794 0.5
206 1 0.374361 0.579649 0.5
268 1 0.269106 0.613016 0.5
159 1 0.364569 0.629222 0.5
321 1 0.266895 0.663138 0.5
169 1 0.310983 0.640199 0.5
263 1 0.315407 0.689137 0.5
33 1 0.364092 0.689537 0.5
157 1 0.272545 0.712732 0.5
118 1 0.322432 0.738289 0.5
152 1 0.3698 0.739568 0.5
19 1 0.288205 0.772658 0.5
139 1 0.336169 0.786523 0.5
342 1 0.286657 0.820093 0.5
247 1 0.33746 0.837918 0.5
201 1 0.291063 0.869553 0.5
236 1 0.344153 0.887439 0.5
215 1 0.251436 0.901511 0.5
100 1 0.303254 0.917072 0.5
233 1 0.266327 0.95192 0.5
374 1 0.367068 0.939947 0.5
253 1 0.325967 0.968925 0.5
143 1 0.371835 0.99274 0.5
25 1 0.412469 0.0170321 0.5
308 1 0.459825 0.0304517 0.5
299 1 0.389287 0.0603326 0.5
20 1 0.494589 0.0616545 0.5
121 1 0.438601 0.0838615 0.5
58 1 0.389279 0.106442 0.5
357 1 0.4907 0.108699 0.5
219 1 0.378369 0.157168 0.5
174 1 0.445776 0.134539 0.5
258 1 0.486074 0.164936 0.5
154 1 0.431299 0.181346 0.5
89 1 0.378679 0.207894 0.5
18 1 0.472355 0.214114 0.5
266 1 0.382256 0.265491 0.5
204 1 0.419809 0.235216 0.5
396 1 0.471731 0.26552 0.5
387 1 0.431594 0.293159 0.5
79 1 0.386441 0.320159 0.5
373 1 0.462972 0.330222 0.5
291 1 0.420644 0.355414 0.5
249 1 0.468093 0.379086 0.5
354 1 0.41202 0.403403 0.5
14 1 0.462993 0.427534 0.5
112 1 0.420216 0.458562 0.5
83 1 0.469025 0.479562 0.5
209 1 0.375568 0.521644 0.5
365 1 0.421627 0.507286 0.5
196 1 0.471594 0.526941 0.5
223 1 0.422941 0.557977 0.5
269 1 0.463486 0.588858 0.5
3 1 0.413141 0.609466 0.5
200 1 0.406677 0.658704 0.5
104 1 0.469677 0.637236 0.5
117 1 0.464859 0.693602 0.5
260 1 0.412938 0.705461 0.5
267 1 0.41988 0.761404 0.5
107 1 0.468487 0.74608 0.5
68 1 0.380308 0.79891 0.5
370 1 0.484121 0.792308 0.5
55 1 0.433531 0.808009 0.5
54 1 0.385749 0.844135 0.5
26 1 0.441624 0.863254 0.5
303 1 0.484994 0.841797 0.5
306 1 0.391864 0.892013 0.5
190 1 0.486777 0.891159 0.5
90 1 0.435206 0.916627 0.5
278 1 0.419579 0.965639 0.5
153 1 0.487121 0.940206 0.5
317 1 0.466739 0.983816 0.5
189 1 0.504671 0.0121515 0.5
220 1 0.549422 0.0456126 0.5
8 1 0.595752 0.0395321 0.5
372 1 0.541163 0.0916391 0.5
134 1 0.589555 0.0915322 0.5
311 1 0.536299 0.140699 0.5
336 1 0.586503 0.142109 0.5
194 1 0.525967 0.199728 0.5
172 1 0.579789 0.19493 0.5
135 1 0.519944 0.253966 0.5
397 1 0.568716 0.248004 0.5
208 1 0.607798 0.286295 0.5
65 1 0.507846 0.302438 0.5
381 1 0.55883 0.303188 0.5
102 1 0.520417 0.350386 0.5
224 1 0.602009 0.336025 0.5
295 1 0.563626 0.368592 0.5
165 1 0.520687 0.401363 0.5
250 1 0.566513 0.423229 0.5
197 1 0.607905 0.400025 0.5
382 1 0.511315 0.4553 0.5
151 1 0.611408 0.451272 0.5
184 1 0.560704 0.470609 0.5
232 1 0.608146 0.497468 0.5
61 1 0.514479 0.50442 0.5
214 1 0.561933 0.521243 0.5
70 1 0.507779 0.55566 0.5
245 1 0.615232 0.548643 0.5
164 1 0.555516 0.570376 0.5
80 1 0.597067 0.593794 0.5
145 1 0.511322 0.602827 0.5
319 1 0.561511 0.630064 0.5
352 1 0.517532 0.655892 0.5
242 1 0.600955 0.65695 0.5
228 1 0.556576 0.679754 0.5
114 1 0.5144 0.706088 0.5
17 1 0.564444 0.730584 0.5
72 1 0.61447 0.733193 0.5
60 1 0.522911 0.755721 0.5
213 1 0.569813 0.791327 0.5
81 1 0.617222 0.785849 0.5
106 1 0.525963 0.817743 0.5
364 1 0.584406 0.839974 0.5
288 1 0.530574 0.866709 0.5
257 1 0.576426 0.889752 0.5
74 1 0.623662 0.888687 0.5
235 1 0.528858 0.919134 0.5
96 1 0.570232 0.943412 0.5
344 1 0.623131 0.935866 0.5
178 1 0.526803 0.969283 0.5
322 1 0.566348 0.999592 0.5
187 1 0.612831 0.986834 0.5
283 1 0.656354 0.0234566 0.5
48 1 0.700405 0.00238063 0.5
334 1 0.745874 0.0292192 0.5
163 1 0.687012 0.0622277 0.5
349 1 0.641338 0.0763421 0.5
122 1 0.73155 0.082198 0.5
218 1 0.631573 0.123072 0.5
128 1 0.692323 0.11299 0.5
181 1 0.677066 0.164269 0.5
390 1 0.72588 0.155319 0.5
320 1 0.630908 0.179656 0.5
149 1 0.67026 0.21289 0.5
238 1 0.739752 0.206115 0.5
330 1 0.625873 0.234658 0.5
75 1 0.702113 0.248436 0.5
339 1 0.658907 0.27145 0.5
328 1 0.650405 0.317359 0.5
275 1 0.696472 0.304342 0.5
270 1 0.643039 0.36348 0.5
109 1 0.689439 0.359783 0.5
176 1 0.73246 0.338892 0.5
341 1 0.718331 0.399662 0.5
85 1 0.665953 0.407392 0.5
338 1 0.701194 0.445891 0.5
202 1 0.747179 0.439981 0.5
27 1 0.6564 0.468146 0.5
293 1 0.655197 0.519075 0.5
13 1 0.705411 0.500709 0.5
345 1 0.704952 0.547908 0.5
171 1 0.658524 0.579039 0.5
362 1 0.741625 0.587808 0.5
259 1 0.646564 0.629634 0.5
277 1 0.69601 0.610775 0.5
400 1 0.694115 0.658813 0.5
195 1 0.738699 0.636255 0.5
368 1 0.642711 0.687304 0.5
256 1 0.706352 0.71004 0.5
217 1 0.663842 0.735223 0.5
192 1 0.668767 0.783736 0.5
82 1 0.741728 0.785561 0.5
210 1 0.643898 0.830181 0.5
130 1 0.695725 0.830624 0.5
251 1 0.744174 0.833353 0.5
394 1 0.675613 0.882669 0.5
356 1 0.723183 0.876717 0.5
380 1 0.739819 0.92674 0.5
129 1 0.693299 0.938921 0.5
273 1 0.657337 0.972018 0.5
315 1 0.745185 0.974601 0.5
77 1 0.860921 0.0019465 0.5
16 1 0.823893 0.0367605 0.5
389 1 0.874178 0.0584018 0.5
296 1 0.779191 0.0698465 0.5
158 1 0.822946 0.0919632 0.5
262 1 0.765167 0.116491 0.5
383 1 0.87202 0.109047 0.5
44 1 0.818297 0.138732 0.5
360 1 0.869624 0.163821 0.5
391 1 0.77216 0.170736 0.5
91 1 0.827771 0.186639 0.5
355 1 0.78775 0.22084 0.5
384 1 0.869334 0.216654 0.5
87 1 0.752859 0.251991 0.5
307 1 0.827147 0.247067 0.5
327 1 0.87048 0.265 0.5
2 1 0.765637 0.297046 0.5
265 1 0.818718 0.298905 0.5
379 1 0.864294 0.324514 0.5
56 1 0.782062 0.342543 0.5
64 1 0.828346 0.35488 0.5
150 1 0.764164 0.384438 0.5
272 1 0.857842 0.392993 0.5
348 1 0.800684 0.417484 0.5
37 1 0.801612 0.465472 0.5
185 1 0.849716 0.445218 0.5
366 1 0.755159 0.49414 0.5
314 1 0.842311 0.496057 0.5
92 1 0.79848 0.519088 0.5
274 1 0.840401 0.548215 0.5
377 1 0.793039 0.570357 0.5
40 1 0.78561 0.621227 0.5
286 1 0.837948 0.600387 0.5
28 1 0.813798 0.662147 0.5
229 1 0.859366 0.640997 0.5
227 1 0.752722 0.683482 0.5
376 1 0.850866 0.689917 0.5
289 1 0.750681 0.73165 0.5
43 1 0.796314 0.712136 0.5
146 1 0.788191 0.76243 0.5
11 1 0.839225 0.737605 0.5
294 1 0.831689 0.790676 0.5
304 1 0.78941 0.817176 0.5
52 1 0.874408 0.82057 0.5
59 1 0.827021 0.848743 0.5
301 1 0.770515 0.885245 0.5
51 1 0.817199 0.907148 0.5
173 1 0.867591 0.921923 0.5
105 1 0.785226 0.944239 0.5
395 1 0.835407 0.959377 0.5
248 1 0.793075 0.993736 0.5
156 1 0.979023 0.0314549 0.5
136 1 0.927926 0.0482287 0.5
179 1 0.919152 0.0970988 0.5
188 1 0.976309 0.0795306 0.5
246 1 0.963437 0.129395 0.5
264 1 0.91358 0.145109 0.5
9 1 0.921669 0.195347 0.5
398 1 0.968934 0.177554 0.5
78 1 0.962395 0.23193 0.5
285 1 0.916333 0.244884 0.5
7 1 0.955564 0.285793 0.5
186 1 0.911089 0.306054 0.5
32 1 0.997357 0.313226 0.5
99 1 0.904818 0.359104 0.5
281 1 0.950028 0.335482 0.5
326 1 0.995665 0.362068 0.5
24 1 0.955373 0.391961 0.5
30 1 0.901587 0.412839 0.5
284 1 0.994824 0.431796 0.5
170 1 0.952482 0.455911 0.5
211 1 0.896391 0.472026 0.5
386 1 0.988033 0.486417 0.5
347 1 0.887818 0.523865 0.5
137 1 0.935749 0.509742 0.5
53 1 0.936528 0.558042 0.5
42 1 0.988427 0.535341 0.5
120 1 0.882281 0.57765 0.5
177 1 0.984251 0.583814 0.5
119 1 0.917819 0.608398 0.5
292 1 0.997711 0.632892 0.5
63 1 0.905537 0.661324 0.5
216 1 0.953132 0.657504 0.5
73 1 0.99008 0.687517 0.5
343 1 0.89234 0.72409 0.5
351 1 0.943108 0.712618 0.5
167 1 0.985293 0.73468 0.5
297 1 0.88834 0.773395 0.5
346 1 0.940171 0.766894 0.5
367 1 0.987202 0.793463 0.5
203 1 0.929805 0.814683 0.5
127 1 0.926153 0.863147 0.5
21 1 0.972217 0.845299 0.5
385 1 0.877962 0.87429 0.5
71 1 0.961919 0.896189 0.5
191 1 0.910413 0.907917 0.5
1 1 0.999706 0.931314 0.5
287 1 0.903026 0.954643 0.5
49 1 0.949841 0.944627 0.5
243 1 0.932107 0.994924 0.5
244 1 0.981702 0.979756 0.5
