ITEM: TIMESTEP
100000
ITEM: NUMBER OF ATOMS
400
ITEM: BOX BOUNDS pp pp pp
0.0000000000000000e+00 2.5819888974716111e+01
0.0000000000000000e+00 2.5819888974716111e+01
-6.4549722436790280e-01 6.4549722436790280e-01
ITEM: ATOMS id type xs ys zs
264 1 0.120245 0.12918 0.5
98 1 0.00971021 0.0248771 0.5
52 1 0.0134275 0.0704483 0.5
297 1 0.0647575 0.0635128 0.5
235 1 0.0204171 0.133295 0.5
365 1 0.0828245 0.120898 0.5
293 1 0.104444 0.0237487 0.5
257 1 0.119631 0.0912378 0.5
399 1 0.038897 0.264047 0.5
252 1 0.0862793 0.188579 0.5
328 1 0.00125878 0.270964 0.5
335 1 0.0481659 0.178838 0.5
242 1 0.0598696 0.215981 0.5
360 1 0.0971085 0.281551 0.5
277 1 0.10685 0.245655 0.5
273 1 0.0245156 0.303786 0.5
311 1 0.115648 0.323026 0.5
18 1 0.0595583 0.433796 0.5
396 1 0.0864389 0.363552 0.5
301 1 0.11322 0.415885 0.5
204 1 0.0214589 0.435082 0.5
22 1 0.0118621 0.395346 0.5
14 1 0.0855474 0.469475 0.5
191 1 0.0428364 0.364648 0.5
222 1 0.0645533 0.578876 0.5
53 1 0.0308729 0.625868 0.5
267 1 0.0730998 0.637561 0.5
155 1 0.0774118 0.538111 0.5
107 1 0.0350929 0.553357 0.5
359 1 0.059401 0.50264 0.5
282 1 0.104152 0.575433 0.5
151 1 0.00381154 0.593344 0.5
254 1 0.0225526 0.666255 0.5
136 1 0.111356 0.513775 0.5
367 1 0.0692283 0.6775 0.5
147 1 0.111112 0.677765 0.5
89 1 0.0670308 0.751737 0.5
123 1 0.0724603 0.811941 0.5
69 1 0.0306654 0.755376 0.5
289 1 0.0043823 0.701531 0.5
173 1 0.119081 0.877479 0.5
317 1 0.0520766 0.860559 0.5
364 1 0.0543544 0.963326 0.5
102 1 0.0714321 0.997963 0.5
278 1 0.011566 0.850792 0.5
233 1 0.0601277 0.921238 0.5
183 1 0.106517 0.842626 0.5
284 1 0.150211 0.0451888 0.5
343 1 0.203323 0.0968444 0.5
337 1 0.237829 0.0734672 0.5
370 1 0.214272 0.00875125 0.5
48 1 0.167621 0.0112557 0.5
247 1 0.192198 0.0516901 0.5
344 1 0.239409 0.117499 0.5
349 1 0.19104 0.135077 0.5
171 1 0.215692 0.272912 0.5
276 1 0.199673 0.18172 0.5
60 1 0.177184 0.278813 0.5
260 1 0.192532 0.332421 0.5
56 1 0.140859 0.296186 0.5
393 1 0.165876 0.211941 0.5
206 1 0.24488 0.238791 0.5
163 1 0.141247 0.168517 0.5
95 1 0.215864 0.461219 0.5
197 1 0.182697 0.489288 0.5
10 1 0.189693 0.379161 0.5
241 1 0.143358 0.376786 0.5
58 1 0.166918 0.412797 0.5
13 1 0.246009 0.366708 0.5
321 1 0.131168 0.45626 0.5
211 1 0.241187 0.493201 0.5
380 1 0.15609 0.570772 0.5
93 1 0.242247 0.646158 0.5
313 1 0.222636 0.598533 0.5
24 1 0.172283 0.604899 0.5
199 1 0.148083 0.528025 0.5
134 1 0.201483 0.568224 0.5
198 1 0.193564 0.647333 0.5
319 1 0.217381 0.523255 0.5
190 1 0.126495 0.63002 0.5
266 1 0.188718 0.746023 0.5
31 1 0.234132 0.815104 0.5
71 1 0.173061 0.820555 0.5
387 1 0.161722 0.670709 0.5
33 1 0.189844 0.697681 0.5
124 1 0.234992 0.702883 0.5
345 1 0.24305 0.743999 0.5
129 1 0.200891 0.789807 0.5
34 1 0.129844 0.739734 0.5
39 1 0.203469 0.863322 0.5
73 1 0.248104 0.864268 0.5
188 1 0.126136 0.924799 0.5
255 1 0.163992 0.87741 0.5
85 1 0.128505 0.976854 0.5
226 1 0.178112 0.944799 0.5
308 1 0.332969 0.159699 0.5
170 1 0.253022 0.00948275 0.5
327 1 0.295426 0.0663292 0.5
314 1 0.333339 0.101375 0.5
287 1 0.301049 0.0105167 0.5
40 1 0.27632 0.0980235 0.5
269 1 0.275308 0.139592 0.5
270 1 0.290465 0.222353 0.5
165 1 0.343791 0.290652 0.5
331 1 0.27998 0.181039 0.5
126 1 0.297204 0.272606 0.5
291 1 0.366744 0.23878 0.5
246 1 0.33633 0.214081 0.5
74 1 0.256913 0.283063 0.5
268 1 0.360557 0.461068 0.5
194 1 0.352931 0.338427 0.5
159 1 0.331782 0.424344 0.5
90 1 0.364306 0.384022 0.5
94 1 0.272615 0.454977 0.5
41 1 0.318497 0.383089 0.5
130 1 0.32443 0.487569 0.5
361 1 0.28796 0.406262 0.5
341 1 0.372336 0.498477 0.5
57 1 0.284366 0.649136 0.5
45 1 0.288893 0.601174 0.5
164 1 0.323725 0.586025 0.5
65 1 0.351545 0.531645 0.5
240 1 0.354511 0.610409 0.5
143 1 0.323335 0.632217 0.5
389 1 0.27264 0.538672 0.5
79 1 0.256441 0.579967 0.5
253 1 0.324014 0.751266 0.5
92 1 0.308359 0.794795 0.5
339 1 0.271735 0.79958 0.5
55 1 0.353937 0.796044 0.5
208 1 0.271649 0.69816 0.5
263 1 0.280838 0.748436 0.5
230 1 0.310998 0.709324 0.5
223 1 0.336183 0.983157 0.5
209 1 0.352732 0.838755 0.5
146 1 0.337288 0.92917 0.5
112 1 0.254726 0.910842 0.5
162 1 0.342195 0.883006 0.5
145 1 0.279776 0.938392 0.5
121 1 0.296538 0.877346 0.5
265 1 0.370896 0.946887 0.5
91 1 0.263565 0.973344 0.5
275 1 0.282858 0.83771 0.5
3 1 0.38123 0.0369703 0.5
348 1 0.454981 0.131053 0.5
368 1 0.40231 0.109128 0.5
63 1 0.415698 0.0172721 0.5
288 1 0.462364 0.0551727 0.5
250 1 0.478762 0.0216632 0.5
353 1 0.381421 0.143115 0.5
378 1 0.482134 0.30042 0.5
77 1 0.39543 0.309753 0.5
227 1 0.456386 0.185017 0.5
363 1 0.413837 0.213569 0.5
135 1 0.474092 0.221345 0.5
64 1 0.398471 0.267893 0.5
12 1 0.448573 0.259258 0.5
243 1 0.425631 0.331931 0.5
119 1 0.422343 0.168736 0.5
292 1 0.475417 0.338615 0.5
330 1 0.458603 0.413251 0.5
315 1 0.481534 0.447474 0.5
316 1 0.442745 0.454088 0.5
388 1 0.407498 0.477765 0.5
279 1 0.402465 0.36195 0.5
392 1 0.458869 0.373892 0.5
202 1 0.415746 0.396952 0.5
180 1 0.493941 0.39125 0.5
391 1 0.392015 0.436478 0.5
379 1 0.466643 0.571644 0.5
178 1 0.468605 0.500317 0.5
350 1 0.461169 0.659319 0.5
7 1 0.447335 0.535515 0.5
120 1 0.42325 0.595046 0.5
118 1 0.391315 0.627162 0.5
133 1 0.385148 0.573423 0.5
47 1 0.389209 0.53757 0.5
186 1 0.447013 0.737388 0.5
336 1 0.409237 0.757682 0.5
352 1 0.436995 0.697869 0.5
214 1 0.486592 0.718919 0.5
237 1 0.391328 0.715239 0.5
377 1 0.437936 0.803663 0.5
38 1 0.470283 0.783367 0.5
150 1 0.404596 0.823093 0.5
390 1 0.381007 0.667841 0.5
97 1 0.464862 0.832729 0.5
309 1 0.49916 0.680232 0.5
217 1 0.452296 0.983871 0.5
83 1 0.474421 0.882864 0.5
195 1 0.415566 0.864508 0.5
157 1 0.38081 0.892254 0.5
111 1 0.469364 0.920924 0.5
46 1 0.402028 0.966847 0.5
116 1 0.421843 0.919089 0.5
160 1 0.581473 0.142531 0.5
161 1 0.507997 0.11511 0.5
49 1 0.502091 0.152943 0.5
158 1 0.596971 0.0325374 0.5
248 1 0.584137 0.0853573 0.5
395 1 0.526364 0.0319459 0.5
28 1 0.501271 0.0583868 0.5
144 1 0.563262 0.27393 0.5
271 1 0.603095 0.254213 0.5
6 1 0.53464 0.29797 0.5
16 1 0.538441 0.187235 0.5
342 1 0.512707 0.222125 0.5
312 1 0.570084 0.218389 0.5
142 1 0.576799 0.1808 0.5
251 1 0.606049 0.314765 0.5
283 1 0.618398 0.220261 0.5
346 1 0.616667 0.173559 0.5
44 1 0.5918 0.365076 0.5
373 1 0.526247 0.334957 0.5
101 1 0.618135 0.482265 0.5
113 1 0.574168 0.423727 0.5
110 1 0.56786 0.493141 0.5
298 1 0.548099 0.458012 0.5
122 1 0.536195 0.416528 0.5
201 1 0.519181 0.493761 0.5
42 1 0.549487 0.381296 0.5
296 1 0.564612 0.337882 0.5
35 1 0.527263 0.639771 0.5
182 1 0.590548 0.528086 0.5
325 1 0.594956 0.654366 0.5
187 1 0.547088 0.535595 0.5
175 1 0.556901 0.617654 0.5
307 1 0.590938 0.589596 0.5
75 1 0.539719 0.582448 0.5
274 1 0.505097 0.56134 0.5
305 1 0.508854 0.606194 0.5
109 1 0.601958 0.822625 0.5
280 1 0.577881 0.731649 0.5
196 1 0.524394 0.716578 0.5
181 1 0.539039 0.829688 0.5
87 1 0.601011 0.691142 0.5
374 1 0.567347 0.773495 0.5
189 1 0.555709 0.69617 0.5
108 1 0.622258 0.743991 0.5
104 1 0.506073 0.753083 0.5
137 1 0.501673 0.840346 0.5
215 1 0.571398 0.995439 0.5
169 1 0.571531 0.950582 0.5
78 1 0.578605 0.869057 0.5
153 1 0.533376 0.872341 0.5
334 1 0.576411 0.908755 0.5
295 1 0.619439 0.864074 0.5
357 1 0.528569 0.992415 0.5
294 1 0.60779 0.982361 0.5
84 1 0.508755 0.959617 0.5
172 1 0.623499 0.916925 0.5
66 1 0.682233 0.126589 0.5
219 1 0.636161 0.127539 0.5
386 1 0.696492 0.0353615 0.5
355 1 0.632746 0.0550802 0.5
4 1 0.728363 0.0169182 0.5
148 1 0.699893 0.0871273 0.5
347 1 0.631309 0.0096321 0.5
258 1 0.729179 0.156854 0.5
8 1 0.744626 0.275504 0.5
221 1 0.689014 0.168193 0.5
213 1 0.692243 0.269097 0.5
176 1 0.66949 0.198378 0.5
332 1 0.640909 0.256272 0.5
203 1 0.653154 0.292033 0.5
351 1 0.742875 0.330996 0.5
76 1 0.675939 0.325111 0.5
17 1 0.724457 0.374718 0.5
128 1 0.706035 0.437894 0.5
375 1 0.630228 0.442144 0.5
15 1 0.688209 0.371119 0.5
249 1 0.659854 0.482835 0.5
86 1 0.641054 0.34502 0.5
382 1 0.71017 0.478485 0.5
117 1 0.651851 0.384885 0.5
32 1 0.632295 0.519576 0.5
67 1 0.674577 0.619398 0.5
68 1 0.717913 0.643791 0.5
25 1 0.68851 0.528908 0.5
54 1 0.668635 0.560855 0.5
285 1 0.716275 0.570401 0.5
210 1 0.750668 0.616114 0.5
371 1 0.635172 0.625998 0.5
299 1 0.742528 0.510012 0.5
366 1 0.739811 0.768196 0.5
372 1 0.632725 0.792516 0.5
103 1 0.722177 0.723123 0.5
50 1 0.689367 0.798041 0.5
149 1 0.66918 0.719116 0.5
5 1 0.683957 0.757457 0.5
261 1 0.722166 0.684321 0.5
286 1 0.685679 0.675231 0.5
238 1 0.735049 0.821339 0.5
236 1 0.664364 0.882572 0.5
141 1 0.668335 0.957361 0.5
383 1 0.667863 0.835023 0.5
139 1 0.72162 0.977816 0.5
99 1 0.678562 0.91875 0.5
166 1 0.8334 0.147161 0.5
310 1 0.838202 0.0755741 0.5
318 1 0.794747 0.0615366 0.5
19 1 0.753702 0.0743713 0.5
225 1 0.818811 0.0317884 0.5
1 1 0.775773 0.0290118 0.5
80 1 0.869331 0.0149756 0.5
96 1 0.807451 0.115849 0.5
138 1 0.768787 0.130648 0.5
23 1 0.870782 0.0960154 0.5
100 1 0.832273 0.279192 0.5
207 1 0.860616 0.252085 0.5
322 1 0.807483 0.212171 0.5
306 1 0.851079 0.201981 0.5
61 1 0.772216 0.24458 0.5
340 1 0.783149 0.330134 0.5
232 1 0.751488 0.212687 0.5
381 1 0.822089 0.320647 0.5
304 1 0.800424 0.175585 0.5
168 1 0.870292 0.16613 0.5
333 1 0.806882 0.392633 0.5
302 1 0.847167 0.376515 0.5
376 1 0.820887 0.454835 0.5
81 1 0.842869 0.417108 0.5
82 1 0.784148 0.475803 0.5
193 1 0.86419 0.476524 0.5
397 1 0.755301 0.42379 0.5
303 1 0.755173 0.655009 0.5
200 1 0.843822 0.550844 0.5
106 1 0.812518 0.659507 0.5
259 1 0.777253 0.529645 0.5
231 1 0.799818 0.579629 0.5
59 1 0.834318 0.502525 0.5
384 1 0.799767 0.622786 0.5
229 1 0.847938 0.621955 0.5
394 1 0.753094 0.575583 0.5
88 1 0.868597 0.519517 0.5
11 1 0.825918 0.80319 0.5
324 1 0.784191 0.770223 0.5
125 1 0.831635 0.693457 0.5
2 1 0.760588 0.704551 0.5
51 1 0.772806 0.806166 0.5
26 1 0.862559 0.76049 0.5
192 1 0.866445 0.681304 0.5
362 1 0.814194 0.904389 0.5
338 1 0.784591 0.839859 0.5
154 1 0.856995 0.920338 0.5
239 1 0.808595 0.989558 0.5
37 1 0.840108 0.875735 0.5
220 1 0.794813 0.94966 0.5
228 1 0.827144 0.839586 0.5
177 1 0.756302 0.878658 0.5
256 1 0.862756 0.978331 0.5
43 1 0.754441 0.952246 0.5
179 1 0.973012 0.158866 0.5
216 1 0.930408 0.0299147 0.5
234 1 0.948838 0.0745634 0.5
156 1 0.88918 0.0523138 0.5
272 1 0.913897 0.133001 0.5
320 1 0.965778 0.121312 0.5
356 1 0.900739 0.314402 0.5
244 1 0.955951 0.239608 0.5
224 1 0.932485 0.273387 0.5
131 1 0.895521 0.219233 0.5
385 1 0.908925 0.174553 0.5
358 1 0.966621 0.298826 0.5
185 1 0.943297 0.198464 0.5
212 1 0.880034 0.440584 0.5
115 1 0.885709 0.354215 0.5
20 1 0.889384 0.394321 0.5
329 1 0.938538 0.337979 0.5
62 1 0.957758 0.387342 0.5
184 1 0.938525 0.469828 0.5
326 1 0.986225 0.444534 0.5
281 1 0.987409 0.495723 0.5
105 1 0.895111 0.494998 0.5
262 1 0.997347 0.335953 0.5
30 1 0.936527 0.509505 0.5
323 1 0.92263 0.549145 0.5
290 1 0.972646 0.553118 0.5
152 1 0.941521 0.590641 0.5
140 1 0.935275 0.637716 0.5
127 1 0.894752 0.644486 0.5
70 1 0.985818 0.643851 0.5
354 1 0.880408 0.585105 0.5
27 1 0.901752 0.776451 0.5
205 1 0.949902 0.794475 0.5
245 1 0.956702 0.707412 0.5
300 1 0.905813 0.731759 0.5
369 1 0.913243 0.681113 0.5
218 1 0.884067 0.811573 0.5
29 1 0.984995 0.776472 0.5
398 1 0.935884 0.82783 0.5
36 1 0.935889 0.909263 0.5
174 1 0.967216 0.85309 0.5
400 1 0.982224 0.999302 0.5
167 1 0.888752 0.945272 0.5
114 1 0.929012 0.871116 0.5
132 1 0.942157 0.981786 0.5
9 1 0.968338 0.924839 0.5
21 1 0.891192 0.895057 0.5
72 1 0.993036 0.956049 0.5
