ITEM: TIMESTEP
100000
ITEM: NUMBER OF ATOMS
400
ITEM: BOX BOUNDS pp pp pp
0.0000000000000000e+00 2.2360679774997898e+01
0.0000000000000000e+00 2.2360679774997898e+01
-5.5901699437494745e-01 5.5901699437494745e-01
ITEM: ATOMS id type xs ys zs
127 1 0.066549 0.0432109 0.5
27 1 0.0559625 0.125878 0.5
286 1 0.110914 0.0506734 0.5
109 1 0.0840829 0.0878747 0.5
362 1 0.0125482 0.130679 0.5
337 1 0.0390071 0.0856369 0.5
221 1 0.00863492 0.0518239 0.5
110 1 0.0547819 -8.62309e-07 0.5
313 1 0.00166836 -0.000886663 0.5
140 1 0.0990659 0.314486 0.5
155 1 0.0639032 0.170782 0.5
310 1 0.0615816 0.271368 0.5
193 1 0.0430774 0.2306 0.5
180 1 0.0843403 0.219381 0.5
103 1 0.0177766 0.178718 0.5
397 1 0.122491 0.176998 0.5
248 1 -0.00102662 0.244299 0.5
327 1 0.119973 0.275204 0.5
79 1 0.0939685 0.361784 0.5
119 1 0.0716323 0.462635 0.5
273 1 0.0830813 0.409405 0.5
129 1 0.0124356 0.430352 0.5
289 1 0.115415 0.459993 0.5
308 1 0.0386901 0.395364 0.5
201 1 0.00411381 0.339792 0.5
8 1 0.0529901 0.348961 0.5
77 1 0.0419855 0.59398 0.5
222 1 0.00369369 0.628774 0.5
250 1 0.0394769 0.545068 0.5
299 1 0.0856483 0.6147 0.5
115 1 0.0816941 0.567322 0.5
142 1 0.096465 0.502148 0.5
300 1 0.0394075 0.6592 0.5
204 1 0.104263 0.65753 0.5
33 1 0.0381791 0.501299 0.5
34 1 0.122609 0.545907 0.5
11 1 0.00841193 0.82434 0.5
280 1 0.0900597 0.703363 0.5
50 1 0.0895427 0.772288 0.5
120 1 0.0512552 0.824271 0.5
23 1 0.0528373 0.727036 0.5
135 1 0.00687561 0.688697 0.5
254 1 0.0312581 0.780755 0.5
232 1 0.00492431 0.734945 0.5
270 1 0.11331 0.959145 0.5
73 1 0.0225138 0.866305 0.5
233 1 0.0688654 0.941462 0.5
334 1 0.0733667 0.872551 0.5
62 1 0.0281714 0.956613 0.5
347 1 0.093196 0.836089 0.5
66 1 0.034019 0.912047 0.5
113 1 0.193986 0.0313624 0.5
316 1 0.176247 0.0959049 0.5
43 1 0.23774 0.0452913 0.5
149 1 0.153944 0.0401338 0.5
87 1 0.147438 0.129792 0.5
303 1 0.23133 0.120139 0.5
117 1 0.177368 0.161479 0.5
375 1 0.129208 0.0905089 0.5
128 1 0.178776 0.205396 0.5
354 1 0.169894 0.27572 0.5
263 1 0.221887 0.285382 0.5
28 1 0.208038 0.239232 0.5
90 1 0.137929 0.229488 0.5
223 1 0.227675 0.178867 0.5
20 1 0.154307 0.324191 0.5
382 1 0.147029 0.367704 0.5
48 1 0.203278 0.472481 0.5
315 1 0.243193 0.440994 0.5
306 1 0.160786 0.460828 0.5
348 1 0.200162 0.423096 0.5
168 1 0.248456 0.483109 0.5
281 1 0.194216 0.370042 0.5
45 1 0.146815 0.417739 0.5
213 1 0.236585 0.350434 0.5
144 1 0.239945 0.398079 0.5
291 1 0.159145 0.629757 0.5
319 1 0.180321 0.578951 0.5
141 1 0.208725 0.614271 0.5
399 1 0.138984 0.592629 0.5
134 1 0.186883 0.530642 0.5
298 1 0.148027 0.506565 0.5
53 1 0.232118 0.576115 0.5
367 1 0.232983 0.528416 0.5
104 1 0.225124 0.658105 0.5
178 1 0.225552 0.752925 0.5
132 1 0.216119 0.711199 0.5
130 1 0.172926 0.743244 0.5
326 1 0.140946 0.711394 0.5
136 1 0.153478 0.832519 0.5
26 1 0.205432 0.795896 0.5
388 1 0.180158 0.67024 0.5
51 1 0.127345 0.792016 0.5
182 1 0.179521 0.914741 0.5
84 1 0.192516 0.983344 0.5
122 1 0.236451 0.989 0.5
209 1 0.159802 0.950891 0.5
239 1 0.158378 0.874572 0.5
245 1 0.232558 0.946933 0.5
199 1 0.206036 0.852238 0.5
251 1 0.238703 0.888182 0.5
32 1 0.132467 0.997247 0.5
255 1 0.128893 0.913913 0.5
40 1 0.322151 0.00191828 0.5
181 1 0.280703 0.0298606 0.5
322 1 0.337316 0.107051 0.5
57 1 0.277937 0.1286 0.5
217 1 0.314713 0.0569348 0.5
368 1 0.274624 0.0845349 0.5
94 1 0.372799 0.0281633 0.5
167 1 0.355603 0.147189 0.5
65 1 0.25976 0.305862 0.5
392 1 0.319224 0.222761 0.5
106 1 0.367253 0.236981 0.5
390 1 0.297546 0.283147 0.5
351 1 0.262562 0.254098 0.5
379 1 0.354421 0.194302 0.5
282 1 0.268873 0.19143 0.5
225 1 0.314694 0.170345 0.5
179 1 0.347542 0.280355 0.5
150 1 0.336877 0.323139 0.5
231 1 0.344768 0.454113 0.5
215 1 0.3711 0.411749 0.5
374 1 0.288767 0.360837 0.5
386 1 0.294056 0.488243 0.5
324 1 0.36482 0.35585 0.5
227 1 0.328146 0.383276 0.5
15 1 0.366971 0.493356 0.5
349 1 0.316986 0.603327 0.5
36 1 0.261267 0.615036 0.5
325 1 0.322289 0.557646 0.5
297 1 0.369414 0.586711 0.5
143 1 0.281917 0.577101 0.5
203 1 0.283968 0.530154 0.5
244 1 0.330131 0.514483 0.5
267 1 0.373021 0.630353 0.5
153 1 0.274112 0.659627 0.5
42 1 0.316883 0.651674 0.5
271 1 0.367297 0.542233 0.5
365 1 0.322075 0.811048 0.5
67 1 0.269579 0.741173 0.5
396 1 0.260875 0.820169 0.5
188 1 0.319757 0.748798 0.5
97 1 0.284781 0.783077 0.5
56 1 0.308955 0.70332 0.5
336 1 0.262912 0.699855 0.5
314 1 0.361882 0.683132 0.5
246 1 0.363363 0.771393 0.5
385 1 0.311019 0.905496 0.5
333 1 0.279446 0.974823 0.5
192 1 0.271814 0.926422 0.5
133 1 0.367616 0.968249 0.5
86 1 0.344798 0.851329 0.5
260 1 0.354333 0.921768 0.5
329 1 0.303503 0.862084 0.5
257 1 0.484249 0.126527 0.5
230 1 0.456978 0.0230823 0.5
262 1 0.375016 0.0844314 0.5
197 1 0.460549 0.0712798 0.5
41 1 0.410281 0.056215 0.5
205 1 0.427716 0.10899 0.5
352 1 0.445615 0.149218 0.5
361 1 0.399634 0.142724 0.5
156 1 0.464475 0.212445 0.5
389 1 0.48934 0.308922 0.5
10 1 0.417084 0.23015 0.5
93 1 0.457007 0.260886 0.5
186 1 0.415707 0.278091 0.5
387 1 0.412044 0.18758 0.5
114 1 0.406304 0.378151 0.5
148 1 0.428971 0.427479 0.5
343 1 0.449139 0.339307 0.5
6 1 0.394684 0.458869 0.5
137 1 0.471534 0.427663 0.5
157 1 0.475716 0.374191 0.5
212 1 0.447678 0.46816 0.5
17 1 0.492297 0.470938 0.5
118 1 0.406515 0.334907 0.5
147 1 0.493588 0.629514 0.5
346 1 0.448935 0.553535 0.5
355 1 0.482987 0.581062 0.5
124 1 0.421737 0.507144 0.5
100 1 0.410132 0.578461 0.5
177 1 0.476044 0.510667 0.5
317 1 0.426153 0.633725 0.5
14 1 0.393975 0.806384 0.5
70 1 0.418994 0.690634 0.5
30 1 0.440694 0.805163 0.5
96 1 0.481881 0.793522 0.5
249 1 0.459914 0.669956 0.5
216 1 0.470532 0.748934 0.5
61 1 0.4157 0.760404 0.5
293 1 0.382102 0.726652 0.5
13 1 0.444397 0.887995 0.5
393 1 0.487981 0.991231 0.5
64 1 0.452598 0.930072 0.5
68 1 0.397622 0.935825 0.5
321 1 0.446156 0.974142 0.5
335 1 0.398479 0.87124 0.5
111 1 0.403265 0.993789 0.5
398 1 0.488517 0.843362 0.5
112 1 0.54156 0.116165 0.5
139 1 0.556266 0.0644259 0.5
152 1 0.581431 0.0316196 0.5
74 1 0.614311 0.159525 0.5
394 1 0.59574 0.0858788 0.5
105 1 0.588195 0.126525 0.5
107 1 0.503161 0.0413136 0.5
1 1 0.502899 0.0868427 0.5
88 1 0.559837 0.160135 0.5
226 1 0.529768 0.00708611 0.5
366 1 0.50824 0.164537 0.5
214 1 0.579556 0.201694 0.5
238 1 0.561334 0.249832 0.5
218 1 0.59313 0.28583 0.5
253 1 0.526952 0.28167 0.5
4 1 0.520734 0.215896 0.5
364 1 0.607378 0.244208 0.5
58 1 0.558865 0.317473 0.5
276 1 0.533293 0.45708 0.5
173 1 0.615229 0.483312 0.5
72 1 0.568982 0.480608 0.5
25 1 0.592597 0.345484 0.5
294 1 0.520324 0.341675 0.5
164 1 0.595226 0.435549 0.5
259 1 0.568115 0.38245 0.5
328 1 0.515609 0.403673 0.5
99 1 0.617919 0.395758 0.5
83 1 0.597228 0.648546 0.5
264 1 0.545365 0.648559 0.5
81 1 0.533732 0.588888 0.5
272 1 0.588753 0.524608 0.5
380 1 0.550014 0.545267 0.5
49 1 0.580258 0.603154 0.5
371 1 0.508751 0.54639 0.5
341 1 0.609662 0.566828 0.5
338 1 0.524922 0.500299 0.5
323 1 0.604504 0.754451 0.5
372 1 0.508023 0.678065 0.5
195 1 0.541339 0.723009 0.5
31 1 0.594698 0.695742 0.5
235 1 0.563852 0.774526 0.5
359 1 0.608805 0.799456 0.5
391 1 0.514866 0.763959 0.5
320 1 0.52702 0.803776 0.5
169 1 0.611889 0.998041 0.5
305 1 0.566894 0.952983 0.5
175 1 0.537585 0.864427 0.5
190 1 0.52324 0.9637 0.5
69 1 0.614926 0.953769 0.5
229 1 0.547575 0.911231 0.5
184 1 0.585885 0.886342 0.5
131 1 0.584684 0.839308 0.5
7 1 0.501858 0.895862 0.5
19 1 0.710585 0.133221 0.5
158 1 0.659673 0.132318 0.5
125 1 0.730386 0.0493598 0.5
288 1 0.67219 0.0559871 0.5
242 1 0.645992 0.0910291 0.5
76 1 0.710727 0.0911267 0.5
29 1 0.656512 0.0145903 0.5
339 1 0.703254 0.0167636 0.5
284 1 0.630459 0.0481729 0.5
159 1 0.697451 0.22513 0.5
256 1 0.635586 0.198075 0.5
116 1 0.689118 0.266423 0.5
151 1 0.725619 0.176704 0.5
358 1 0.740598 0.291308 0.5
219 1 0.682956 0.1755 0.5
60 1 0.652414 0.239648 0.5
395 1 0.74762 0.216151 0.5
318 1 0.64328 0.298238 0.5
185 1 0.71021 0.321533 0.5
210 1 0.703958 0.464234 0.5
285 1 0.700316 0.368078 0.5
279 1 0.745635 0.481659 0.5
295 1 0.661142 0.40784 0.5
154 1 0.652549 0.358863 0.5
357 1 0.739478 0.433585 0.5
384 1 0.648974 0.450437 0.5
102 1 0.739594 0.39022 0.5
360 1 0.719259 0.530486 0.5
292 1 0.684731 0.64588 0.5
287 1 0.67501 0.558217 0.5
172 1 0.670479 0.60442 0.5
12 1 0.649602 0.514515 0.5
208 1 0.734983 0.604861 0.5
274 1 0.733185 0.650737 0.5
91 1 0.62589 0.609922 0.5
268 1 0.734937 0.776252 0.5
189 1 0.679724 0.737166 0.5
363 1 0.648746 0.770559 0.5
101 1 0.655195 0.826296 0.5
381 1 0.74675 0.709602 0.5
59 1 0.702919 0.687354 0.5
228 1 0.70134 0.812141 0.5
211 1 0.634191 0.721797 0.5
236 1 0.635822 0.677386 0.5
82 1 0.749735 0.830526 0.5
302 1 0.741413 0.924038 0.5
98 1 0.661082 0.956959 0.5
24 1 0.65478 0.914811 0.5
71 1 0.710037 0.974024 0.5
301 1 0.686404 0.871805 0.5
331 1 0.697526 0.931813 0.5
44 1 0.627876 0.861298 0.5
265 1 0.74678 0.992073 0.5
162 1 0.773151 0.0742613 0.5
378 1 0.841728 0.111883 0.5
145 1 0.870812 0.140944 0.5
89 1 0.827684 0.154447 0.5
220 1 0.821345 0.0723494 0.5
123 1 0.795477 0.118149 0.5
78 1 0.784054 0.0318969 0.5
290 1 0.835626 0.0276908 0.5
47 1 0.751883 0.111101 0.5
5 1 0.769604 0.161623 0.5
266 1 0.874339 0.00346094 0.5
38 1 0.85152 0.193776 0.5
275 1 0.847067 0.26684 0.5
171 1 0.802402 0.191508 0.5
92 1 0.811999 0.235015 0.5
160 1 0.770868 0.324341 0.5
22 1 0.783167 0.268461 0.5
376 1 0.812501 0.316622 0.5
108 1 0.855899 0.318094 0.5
18 1 0.833781 0.362208 0.5
194 1 0.792416 0.47419 0.5
224 1 0.873344 0.441985 0.5
54 1 0.866429 0.395413 0.5
198 1 0.780752 0.377578 0.5
95 1 0.781063 0.427758 0.5
196 1 0.838087 0.47744 0.5
258 1 0.823175 0.535551 0.5
377 1 0.777748 0.628256 0.5
37 1 0.748973 0.561399 0.5
330 1 0.782077 0.525502 0.5
170 1 0.7897 0.5755 0.5
350 1 0.820011 0.654588 0.5
345 1 0.872134 0.537178 0.5
370 1 0.854189 0.693392 0.5
206 1 0.790522 0.70717 0.5
121 1 0.788023 0.7599 0.5
75 1 0.78799 0.812264 0.5
166 1 0.840701 0.744314 0.5
234 1 0.832887 0.795269 0.5
307 1 0.876341 0.806893 0.5
187 1 0.798288 0.987997 0.5
383 1 0.843264 0.841468 0.5
309 1 0.781398 0.94781 0.5
261 1 0.79668 0.90213 0.5
55 1 0.752676 0.873424 0.5
46 1 0.836627 0.917187 0.5
240 1 0.841394 0.974616 0.5
63 1 0.984417 0.0898806 0.5
247 1 0.955944 0.131105 0.5
126 1 0.912504 0.052192 0.5
283 1 0.961587 0.0445819 0.5
146 1 0.93662 0.0892019 0.5
237 1 0.933546 0.00939744 0.5
304 1 0.885284 0.0997273 0.5
3 1 0.913833 0.139767 0.5
356 1 0.926446 0.259226 0.5
243 1 0.913175 0.304753 0.5
312 1 0.910373 0.183645 0.5
165 1 0.980537 0.202223 0.5
35 1 0.879487 0.236567 0.5
207 1 1.00022 0.28947 0.5
373 1 0.951978 0.322434 0.5
183 1 0.979982 0.392258 0.5
353 1 0.890006 0.484532 0.5
21 1 0.940682 0.474616 0.5
2 1 0.938132 0.368903 0.5
161 1 0.895639 0.35229 0.5
277 1 0.950905 0.425927 0.5
39 1 0.907956 0.414367 0.5
85 1 0.997941 0.481389 0.5
16 1 0.990668 0.525189 0.5
344 1 0.954792 0.55029 0.5
191 1 0.918881 0.526334 0.5
369 1 0.898461 0.580467 0.5
342 1 0.962713 0.615903 0.5
138 1 0.880607 0.62916 0.5
163 1 0.923458 0.638618 0.5
400 1 0.987103 0.576955 0.5
176 1 0.963753 0.660891 0.5
52 1 0.981259 0.785571 0.5
9 1 0.929163 0.789021 0.5
202 1 0.892583 0.672079 0.5
311 1 0.887009 0.766057 0.5
278 1 0.952965 0.708873 0.5
241 1 0.964688 0.830464 0.5
269 1 0.90209 0.718601 0.5
252 1 0.941323 0.881002 0.5
200 1 0.883531 0.943829 0.5
332 1 0.888736 0.889877 0.5
340 1 0.931517 0.928627 0.5
174 1 0.977559 0.943102 0.5
296 1 0.921135 0.837797 0.5
80 1 0.91572 0.971047 0.5
