
  Memory set to 572.205 MiB by Python driver.

Scratch directory: /tmp/

  //>>>>>>>>>>>>>>>>>>>>>>>>>>>>>>>>>>>>>//
  // ManyBody Setup: N-Body Levels [1, 2]//
  //<<<<<<<<<<<<<<<<<<<<<<<<<<<<<<<<<<<<<//

        Number of 1-body computations:     2
        Number of 2-body computations:     1

    -----------------------------------------------------------------------
          Psi4: An Open-Source Ab Initio Electronic Structure Package
                               Psi4 1.7a1.dev44 

                         Git: Rev {master} 2792bff 


    D. G. A. Smith, L. A. Burns, A. C. Simmonett, R. M. Parrish,
    M. C. Schieber, R. Galvelis, P. Kraus, H. Kruse, R. Di Remigio,
    A. Alenaizan, A. M. James, S. Lehtola, J. P. Misiewicz, M. Scheurer,
    R. A. Shaw, J. B. Schriber, Y. Xie, Z. L. Glick, D. A. Sirianni,
    J. S. O'Brien, J. M. Waldrop, A. Kumar, E. G. Hohenstein,
    B. P. Pritchard, B. R. Brooks, H. F. Schaefer III, A. Yu. Sokolov,
    K. Patkowski, A. E. DePrince III, U. Bozkaya, R. A. King,
    F. A. Evangelista, J. M. Turney, T. D. Crawford, C. D. Sherrill,
    J. Chem. Phys. 152(18) 184108 (2020). https://doi.org/10.1063/5.0006002

                            Additional Code Authors
    E. T. Seidl, C. L. Janssen, E. F. Valeev, M. L. Leininger,
    J. F. Gonthier, R. M. Richard, H. R. McAlexander, M. Saitow, X. Wang,
    P. Verma, M. H. Lechner, and A. Jiang

             Previous Authors, Complete List of Code Contributors,
                       and Citations for Specific Modules
    https://github.com/psi4/psi4/blob/master/codemeta.json
    https://github.com/psi4/psi4/graphs/contributors
    http://psicode.org/psi4manual/master/introduction.html#citing-psifour

    -----------------------------------------------------------------------


    Psi4 started on: Tuesday, 15 November 2022 02:37PM

    Process ID: 3145569
    Host:       cs042.hpc.nyu.edu
    PSIDATADIR: /ext3/miniconda3/share/psi4
    Memory:     572.2 MiB
    Threads:    1
    
  ==> Input QCSchema <==

--------------------------------------------------------------------------
{'driver': 'energy',
 'extras': {'psiapi': True, 'wfn_qcvars_only': True},
 'id': None,
 'keywords': {'DF_INTS_IO': 'NONE',
              'FREEZE_CORE': 'TRUE',
              'REFERENCE': 'RHF',
              'SAPT__D_CONVERGENCE': 1e-09,
              'SAPT__E_CONVERGENCE': 1e-09,
              'SAPT__SAPT_LEVEL': 'SAPT0',
              'SCF_TYPE': 'DF',
              'SCF__INTS_TOLERANCE': 1e-12,
              'function_kwargs': {}},
 'model': {'basis': 'aug-cc-pvdz', 'method': 'ccsd(t)'},
 'molecule': {'atom_labels': ['', ''],
              'atomic_numbers': [18, 18],
              'fix_com': True,
              'fix_orientation': True,
              'fragment_charges': [0.0, 0.0],
              'fragment_multiplicities': [1, 1],
              'fragments': [[0], [1]],
              'geometry': [0.0, 0.0, -3.3070207195512, 0.0, 0.0, 3.307020719551199],
              'mass_numbers': [40, 40],
              'masses': [39.9623831237, 39.9623831237],
              'molecular_charge': 0.0,
              'molecular_multiplicity': 1,
              'name': 'Ar2',
              'provenance': {'creator': 'QCElemental',
                             'routine': 'qcelemental.molparse.from_string',
                             'version': 'v0.25.1'},
              'real': [False, True],
              'schema_name': 'qcschema_molecule',
              'schema_version': 2,
              'symbols': ['Ar', 'Ar'],
              'validated': True},
 'protocols': {'stdout': True},
 'provenance': {'creator': 'QCElemental', 'routine': 'qcelemental.models.results', 'version': 'v0.25.1'},
 'schema_name': 'qcschema_input',
 'schema_version': 1}
--------------------------------------------------------------------------

Scratch directory: /tmp/

*** tstart() called on cs042.hpc.nyu.edu
*** at Tue Nov 15 15:32:35 2022

   => Loading Basis Set <=

    Name: AUG-CC-PVDZ
    Role: ORBITAL
    Keyword: BASIS
    atoms 1-2 entry AR         line   834 file /ext3/miniconda3/share/psi4/basis/aug-cc-pvdz.gbs 


         ---------------------------------------------------------
                                   SCF
               by Justin Turney, Rob Parrish, Andy Simmonett
                          and Daniel G. A. Smith
                              RHF Reference
                        1 Threads,    572 MiB Core
         ---------------------------------------------------------

  ==> Geometry <==

    Molecular point group: c2v
    Full point group: C_inf_v

    Geometry (in Bohr), charge = 0, multiplicity = 1:

       Center              X                  Y                   Z               Mass       
    ------------   -----------------  -----------------  -----------------  -----------------
      Gh(AR)          0.000000000000     0.000000000000    -3.307020719551    39.962383123700
         AR           0.000000000000     0.000000000000     3.307020719551    39.962383123700

  Running in c2v symmetry.

  Rotational constants: A = ************  B =      0.06887  C =      0.06887 [cm^-1]
  Rotational constants: A = ************  B =   2064.71317  C =   2064.71317 [MHz]
  Nuclear repulsion =    0.000000000000000

  Charge       = 0
  Multiplicity = 1
  Electrons    = 18
  Nalpha       = 9
  Nbeta        = 9

  ==> Algorithm <==

  SCF Algorithm Type is DF.
  DIIS enabled.
  MOM disabled.
  Fractional occupation disabled.
  Guess Type is SAD.
  Energy threshold   = 1.00e-08
  Density threshold  = 1.00e-08
  Integral threshold = 1.00e-12

  ==> Primary Basis <==

  Basis Set: AUG-CC-PVDZ
    Blend: AUG-CC-PVDZ
    Number of shells: 22
    Number of basis functions: 54
    Number of Cartesian functions: 58
    Spherical Harmonics?: true
    Max angular momentum: 2

   => Loading Basis Set <=

    Name: (AUG-CC-PVDZ AUX)
    Role: JKFIT
    Keyword: DF_BASIS_SCF
    atoms 1-2 entry AR         line   854 file /ext3/miniconda3/share/psi4/basis/aug-cc-pvdz-jkfit.gbs 

  ==> Integral Setup <==

  ==> DiskDFJK: Density-Fitted J/K Matrices <==

    J tasked:                  Yes
    K tasked:                  Yes
    wK tasked:                  No
    OpenMP threads:              1
    Integrals threads:           1
    Memory [MiB]:              429
    Algorithm:                Core
    Integral Cache:           NONE
    Schwarz Cutoff:          1E-12
    Fitting Condition:       1E-10

   => Auxiliary Basis Set <=

  Basis Set: (AUG-CC-PVDZ AUX)
    Blend: AUG-CC-PVDZ-JKFIT
    Number of shells: 80
    Number of basis functions: 256
    Number of Cartesian functions: 300
    Spherical Harmonics?: true
    Max angular momentum: 3

  Minimum eigenvalue in the overlap matrix is 2.8502018996E-02.
  Reciprocal condition number of the overlap matrix is 9.9001819426E-03.
    Using symmetric orthogonalization.

  ==> Pre-Iterations <==

  SCF Guess: Superposition of Atomic Densities via on-the-fly atomic UHF (no occupation information).

   -------------------------
    Irrep   Nso     Nmo    
   -------------------------
     A1        26      26 
     A2         4       4 
     B1        12      12 
     B2        12      12 
   -------------------------
    Total      54      54
   -------------------------

  ==> Iterations <==

                           Total Energy        Delta E     RMS |[F,P]|

   @DF-RHF iter SAD:  -526.79237813384407   -5.26792e+02   0.00000e+00 
   @DF-RHF iter   1:  -526.80076239016410   -8.38426e-03   7.27730e-04 DIIS/ADIIS
   @DF-RHF iter   2:  -526.80099837131343   -2.35981e-04   1.93068e-04 DIIS/ADIIS
   @DF-RHF iter   3:  -526.80101317560718   -1.48043e-05   4.64190e-06 DIIS
   @DF-RHF iter   4:  -526.80101319189043   -1.62833e-08   7.06026e-07 DIIS
   @DF-RHF iter   5:  -526.80101319250286   -6.12431e-10   3.44515e-08 DIIS
   @DF-RHF iter   6:  -526.80101319250332   -4.54747e-13   7.92401e-09 DIIS
  Energy and wave function converged.


  ==> Post-Iterations <==

    Orbital Energies [Eh]
    ---------------------

    Doubly Occupied:                                                      

       1A1  -118.610627     2A1   -12.322774     1B1    -9.571358  
       1B2    -9.571358     3A1    -9.571357     4A1    -1.278860  
       5A1    -0.592231     2B2    -0.592219     2B1    -0.592219  

    Virtual:                                                              

       6A1     0.088357     3B1     0.120381     3B2     0.120381  
       7A1     0.126241     8A1     0.165395     4B1     0.167753  
       4B2     0.167753     9A1     0.254381    10A1     0.497196  
       5B1     0.540867     5B2     0.540867    11A1     0.541340  
       1A2     0.541340    12A1     0.545148     6B1     0.576360  
       6B2     0.576360    13A1     0.629984     2A2     0.796674  
      14A1     0.796674     7B1     0.813147     7B2     0.813147  
      15A1     0.846347     8B2     0.974192     8B1     0.974192  
      16A1     1.056221    17A1     1.368606    18A1     1.610419  
       3A2     1.610419     9B1     1.621722     9B2     1.621722  
      19A1     1.697210    20A1     1.929179    10B1     2.441050  
      10B2     2.441050    21A1     2.470640    22A1     3.103994  
       4A2     3.103994    11B1     3.113349    11B2     3.113349  
      23A1     3.179710    24A1     9.193446    12B2    27.720648  
      12B1    27.720648    25A1    27.744146    26A1   176.828038  

    Final Occupation by Irrep:
             A1    A2    B1    B2 
    DOCC [     5,    0,    2,    2 ]
    NA   [     5,    0,    2,    2 ]
    NB   [     5,    0,    2,    2 ]

  @DF-RHF Final Energy:  -526.80101319250332

   => Energetics <=

    Nuclear Repulsion Energy =              0.0000000000000000
    One-Electron Energy =                -728.1960186044397005
    Two-Electron Energy =                 201.3950054119364381
    Total Energy =                       -526.8010131925032056

Computation Completed


Properties will be evaluated at   0.000000,   0.000000,   0.000000 [a0]

Properties computed using the SCF density matrix


 Multipole Moments:

 ------------------------------------------------------------------------------------
     Multipole            Electronic (a.u.)      Nuclear  (a.u.)        Total (a.u.)
 ------------------------------------------------------------------------------------

 L = 1.  Multiply by 2.5417464519 to convert [e a0] to [Debye]
 Dipole X            :          0.0000000            0.0000000            0.0000000
 Dipole Y            :          0.0000000            0.0000000            0.0000000
 Dipole Z            :        -59.5249921           59.5263730            0.0013808
 Magnitude           :                                                    0.0013808

 ------------------------------------------------------------------------------------

*** tstop() called on cs042.hpc.nyu.edu at Tue Nov 15 15:32:39 2022
Module time:
	user time   =       0.45 seconds =       0.01 minutes
	system time =       0.04 seconds =       0.00 minutes
	total time  =          4 seconds =       0.07 minutes
Total time:
	user time   =      91.13 seconds =       1.52 minutes
	system time =      12.48 seconds =       0.21 minutes
	total time  =       3172 seconds =      52.87 minutes
 MINTS: Wrapper to libmints.
   by Justin Turney

   Calculation information:
      Number of threads:                 1
      Number of atoms:                   2
      Number of AO shells:              22
      Number of SO shells:              22
      Number of primitives:            106
      Number of atomic orbitals:        58
      Number of basis functions:        54

      Number of irreps:                  4
      Integral cutoff                 1.00e-12
      Number of functions per irrep: [  26    4   12   12 ]

 OEINTS: Overlap, kinetic, potential, dipole, and quadrupole integrals
         stored in file 35.

      Computing two-electron integrals...done
      Computed 232921 non-zero two-electron integrals.
        Stored in file 33.


*** tstart() called on cs042.hpc.nyu.edu
*** at Tue Nov 15 15:32:40 2022


	Wfn Parameters:
	--------------------
	Wavefunction         = CCSD_T
	Number of irreps     = 4
	Number of MOs        = 54
	Number of active MOs = 49
	AO-Basis             = NONE
	Semicanonical        = false
	Reference            = RHF
	Print Level          = 1

	IRREP	# MOs	# FZDC	# DOCC	# SOCC	# VIRT	# FZVR
	-----	-----	------	------	------	------	------
	 A1	   26	    3	    2	    0	    21	    0
	 A2	   4	    0	    0	    0	    4	    0
	 B1	   12	    1	    1	    0	    10	    0
	 B2	   12	    1	    1	    0	    10	    0
	Transforming integrals...
	IWL integrals will be deleted.
	(OO|OO)...
	Presorting SO-basis two-electron integrals.
	Sorting File: SO Ints (nn|nn) nbuckets = 1
	Constructing frozen core operators
	Starting first half-transformation.
	Sorting half-transformed integrals.
	First half integral transformation complete.
	Starting second half-transformation.
	Two-electron integral transformation complete.
	(OO|OV)...
	Starting second half-transformation.
	Two-electron integral transformation complete.
	(OO|VV)...
	Starting second half-transformation.
	Two-electron integral transformation complete.
	(OV|OO)...
	Starting first half-transformation.
	Sorting half-transformed integrals.
	First half integral transformation complete.
	Starting second half-transformation.
	Two-electron integral transformation complete.
	(OV|OV)...
	Starting second half-transformation.
	Two-electron integral transformation complete.
	(OV|VV)...
	Starting second half-transformation.
	Two-electron integral transformation complete.
	(VV|OO)...
	Starting first half-transformation.
	Sorting half-transformed integrals.
	First half integral transformation complete.
	Starting second half-transformation.
	Two-electron integral transformation complete.
	(VV|OV)...
	Starting second half-transformation.
	Two-electron integral transformation complete.
	(VV|VV)...
	Starting second half-transformation.
	Two-electron integral transformation complete.
	Frozen core energy     =   -505.93058859379909

	Size of irrep 0 of <ab|cd> integrals:      0.432 (MW) /      3.453 (MB)
	Size of irrep 1 of <ab|cd> integrals:      0.135 (MW) /      1.083 (MB)
	Size of irrep 2 of <ab|cd> integrals:      0.250 (MW) /      2.000 (MB)
	Size of irrep 3 of <ab|cd> integrals:      0.250 (MW) /      2.000 (MB)
	Total:                                     1.067 (MW) /      8.537 (MB)

	Size of irrep 0 of <ia|bc> integrals:      0.041 (MW) /      0.326 (MB)
	Size of irrep 1 of <ia|bc> integrals:      0.010 (MW) /      0.082 (MB)
	Size of irrep 2 of <ia|bc> integrals:      0.022 (MW) /      0.180 (MB)
	Size of irrep 3 of <ia|bc> integrals:      0.022 (MW) /      0.180 (MB)
	Total:                                     0.096 (MW) /      0.768 (MB)

	Size of irrep 0 of tijab amplitudes:       0.004 (MW) /      0.032 (MB)
	Size of irrep 1 of tijab amplitudes:       0.001 (MW) /      0.006 (MB)
	Size of irrep 2 of tijab amplitudes:       0.002 (MW) /      0.016 (MB)
	Size of irrep 3 of tijab amplitudes:       0.002 (MW) /      0.016 (MB)
	Total:                                     0.009 (MW) /      0.069 (MB)

	Nuclear Rep. energy          =      0.00000000000000
	SCF energy                   =   -526.80101319250332
	One-electron energy          =    -35.62980647254336
	Two-electron energy          =     14.75938696395485
	Reference energy             =   -526.80100810238764

*** tstop() called on cs042.hpc.nyu.edu at Tue Nov 15 15:32:40 2022
Module time:
	user time   =       0.09 seconds =       0.00 minutes
	system time =       0.05 seconds =       0.00 minutes
	total time  =          0 seconds =       0.00 minutes
Total time:
	user time   =      92.65 seconds =       1.54 minutes
	system time =      12.54 seconds =       0.21 minutes
	total time  =       3173 seconds =      52.88 minutes
            **************************
            *                        *
            *        CCENERGY        *
            *                        *
            **************************

    Nuclear Rep. energy (wfn)     =    0.000000000000000
    SCF energy          (wfn)     = -526.801013192503319
    Reference energy    (file100) = -526.801008102387641

    Input parameters:
    -----------------
    Wave function   =     CCSD_T
    Reference wfn   =     RHF
    Brueckner       =     No
    Memory (Mbytes) =     600.0
    Maxiter         =     50
    R_Convergence   =     1.0e-07
    E_Convergence   =     1.0e-06
    Restart         =     Yes
    DIIS            =     Yes
    AO Basis        =     NONE
    ABCD            =     NEW
    Cache Level     =     2
    Cache Type      =     LOW
    Print Level     =     1
    Num. of threads =     1
    # Amps to Print =     10
    Print MP2 Amps? =     No
    Analyze T2 Amps =     No
    Print Pair Ener =     No
    Local CC        =     No
    SCS-MP2         =     False
    SCSN-MP2        =     False
    SCS-CCSD        =     False

MP2 correlation energy -0.1543964445433423
                Solving CC Amplitude Equations
                ------------------------------
  Iter             Energy              RMS        T1Diag      D1Diag    New D1Diag    D2Diag
  ----     ---------------------    ---------   ----------  ----------  ----------   --------
     0        -0.154396444543342    0.000e+00    0.000000    0.000000    0.000000    0.104851
     1        -0.164393966298501    2.263e-02    0.002855    0.004538    0.004538    0.113959
     2        -0.166148282673596    5.772e-03    0.003407    0.005322    0.005322    0.116566
     3        -0.166258434150427    1.093e-03    0.003670    0.005747    0.005747    0.116891
     4        -0.166260361556213    2.265e-04    0.003711    0.005802    0.005802    0.116943
     5        -0.166257552111267    4.830e-05    0.003718    0.005813    0.005813    0.116939
     6        -0.166257385714043    1.196e-05    0.003719    0.005814    0.005814    0.116938
     7        -0.166257482628434    3.398e-06    0.003719    0.005815    0.005815    0.116938
     8        -0.166257502098934    7.620e-07    0.003719    0.005814    0.005814    0.116938
     9        -0.166257501237856    1.859e-07    0.003719    0.005814    0.005814    0.116938
    10        -0.166257501185994    5.651e-08    0.003719    0.005814    0.005814    0.116938

    Iterations converged.


    Largest TIA Amplitudes:
              1   2        -0.0047303021
              2  26        -0.0044566762
              3  36        -0.0044566762
              2  25         0.0029524060
              3  35         0.0029524060
              0  11        -0.0024971706
              2  30        -0.0022323356
              3  40        -0.0022323356
              1   0         0.0021258242
              1   9         0.0016341608

    Largest TIjAb Amplitudes:
      2   2   5   5        -0.0281116690
      2   2  21  21        -0.0281116690
      3   3   5   5        -0.0281116690
      3   3  21  21        -0.0281116690
      2   2  30  30        -0.0271435546
      3   3  40  40        -0.0271435546
      1   1  27  27        -0.0270195816
      1   1  37  37        -0.0270195816
      2   2  27  27        -0.0270066879
      3   3  37  37        -0.0270066879

    SCF energy       (wfn)                    = -526.801013192503319
    Reference energy (file100)                = -526.801008102387641

    Opposite-spin MP2 correlation energy      =   -0.112053781665499
    Same-spin MP2 correlation energy          =   -0.042342662877843
    Singles MP2 correlation energy            =   -0.000000000000000
    MP2 correlation energy                    =   -0.154396444543342
      * MP2 total energy                      = -526.955404546930936

    Opposite-spin CCSD correlation energy     =   -0.125330051142391
    Same-spin CCSD correlation energy         =   -0.040927450043602
    Singles CCSD correlation energy           =    0.000000000000000
    CCSD correlation energy                   =   -0.166257501185994
      * CCSD total energy                     = -526.967265603573651

            **************************
            *                        *
            *        CCTRIPLES       *
            *                        *
            **************************


    Wave function   =    CCSD_T
    Reference wfn   =      RHF

    Nuclear Rep. energy (wfn)                =    0.000000000000000
    SCF energy          (wfn)                = -526.801013192503319
    Reference energy    (file100)            = -526.801008102387641
    CCSD energy         (file100)            =   -0.166257501185994
    Total CCSD energy   (file100)            = -526.967265603573651

    Number of ijk index combinations:               20
    Memory available in words               :        75000000
    Approx. words needed per explicit thread:           37044
    Number of threads for explicit ijk threading:    1

    MKL num_threads set to 1 for explicit threading.

    (T) energy                                =   -0.002532155228794
      * CCSD(T) total energy                  = -526.969797758802429


    Psi4 stopped on: Tuesday, 15 November 2022 03:32PM
    Psi4 wall time for execution: 0:00:06.14


    -----------------------------------------------------------------------
          Psi4: An Open-Source Ab Initio Electronic Structure Package
                               Psi4 1.7a1.dev44 

                         Git: Rev {master} 2792bff 


    D. G. A. Smith, L. A. Burns, A. C. Simmonett, R. M. Parrish,
    M. C. Schieber, R. Galvelis, P. Kraus, H. Kruse, R. Di Remigio,
    A. Alenaizan, A. M. James, S. Lehtola, J. P. Misiewicz, M. Scheurer,
    R. A. Shaw, J. B. Schriber, Y. Xie, Z. L. Glick, D. A. Sirianni,
    J. S. O'Brien, J. M. Waldrop, A. Kumar, E. G. Hohenstein,
    B. P. Pritchard, B. R. Brooks, H. F. Schaefer III, A. Yu. Sokolov,
    K. Patkowski, A. E. DePrince III, U. Bozkaya, R. A. King,
    F. A. Evangelista, J. M. Turney, T. D. Crawford, C. D. Sherrill,
    J. Chem. Phys. 152(18) 184108 (2020). https://doi.org/10.1063/5.0006002

                            Additional Code Authors
    E. T. Seidl, C. L. Janssen, E. F. Valeev, M. L. Leininger,
    J. F. Gonthier, R. M. Richard, H. R. McAlexander, M. Saitow, X. Wang,
    P. Verma, M. H. Lechner, and A. Jiang

             Previous Authors, Complete List of Code Contributors,
                       and Citations for Specific Modules
    https://github.com/psi4/psi4/blob/master/codemeta.json
    https://github.com/psi4/psi4/graphs/contributors
    http://psicode.org/psi4manual/master/introduction.html#citing-psifour

    -----------------------------------------------------------------------


    Psi4 started on: Tuesday, 15 November 2022 02:37PM

    Process ID: 3145569
    Host:       cs042.hpc.nyu.edu
    PSIDATADIR: /ext3/miniconda3/share/psi4
    Memory:     572.2 MiB
    Threads:    1
    
  ==> Input QCSchema <==

--------------------------------------------------------------------------
{'driver': 'energy',
 'extras': {'psiapi': True, 'wfn_qcvars_only': True},
 'id': None,
 'keywords': {'DF_INTS_IO': 'NONE',
              'FREEZE_CORE': 'TRUE',
              'REFERENCE': 'RHF',
              'SAPT__D_CONVERGENCE': 1e-09,
              'SAPT__E_CONVERGENCE': 1e-09,
              'SAPT__SAPT_LEVEL': 'SAPT0',
              'SCF_TYPE': 'DF',
              'SCF__INTS_TOLERANCE': 1e-12,
              'function_kwargs': {}},
 'model': {'basis': 'aug-cc-pvdz', 'method': 'ccsd(t)'},
 'molecule': {'atom_labels': ['', ''],
              'atomic_numbers': [18, 18],
              'fix_com': True,
              'fix_orientation': True,
              'fragment_charges': [0.0, 0.0],
              'fragment_multiplicities': [1, 1],
              'fragments': [[0], [1]],
              'geometry': [0.0, 0.0, -3.3070207195512, 0.0, 0.0, 3.307020719551199],
              'mass_numbers': [40, 40],
              'masses': [39.9623831237, 39.9623831237],
              'molecular_charge': 0.0,
              'molecular_multiplicity': 1,
              'name': 'Ar2',
              'provenance': {'creator': 'QCElemental',
                             'routine': 'qcelemental.molparse.from_string',
                             'version': 'v0.25.1'},
              'real': [True, False],
              'schema_name': 'qcschema_molecule',
              'schema_version': 2,
              'symbols': ['Ar', 'Ar'],
              'validated': True},
 'protocols': {'stdout': True},
 'provenance': {'creator': 'QCElemental', 'routine': 'qcelemental.models.results', 'version': 'v0.25.1'},
 'schema_name': 'qcschema_input',
 'schema_version': 1}
--------------------------------------------------------------------------

Scratch directory: /tmp/

*** tstart() called on cs042.hpc.nyu.edu
*** at Tue Nov 15 15:32:41 2022

   => Loading Basis Set <=

    Name: AUG-CC-PVDZ
    Role: ORBITAL
    Keyword: BASIS
    atoms 1-2 entry AR         line   834 file /ext3/miniconda3/share/psi4/basis/aug-cc-pvdz.gbs 


         ---------------------------------------------------------
                                   SCF
               by Justin Turney, Rob Parrish, Andy Simmonett
                          and Daniel G. A. Smith
                              RHF Reference
                        1 Threads,    572 MiB Core
         ---------------------------------------------------------

  ==> Geometry <==

    Molecular point group: c2v
    Full point group: C_inf_v

    Geometry (in Bohr), charge = 0, multiplicity = 1:

       Center              X                  Y                   Z               Mass       
    ------------   -----------------  -----------------  -----------------  -----------------
         AR           0.000000000000     0.000000000000    -3.307020719551    39.962383123700
      Gh(AR)          0.000000000000     0.000000000000     3.307020719551    39.962383123700

  Running in c2v symmetry.

  Rotational constants: A = ************  B =      0.06887  C =      0.06887 [cm^-1]
  Rotational constants: A = ************  B =   2064.71317  C =   2064.71317 [MHz]
  Nuclear repulsion =    0.000000000000000

  Charge       = 0
  Multiplicity = 1
  Electrons    = 18
  Nalpha       = 9
  Nbeta        = 9

  ==> Algorithm <==

  SCF Algorithm Type is DF.
  DIIS enabled.
  MOM disabled.
  Fractional occupation disabled.
  Guess Type is SAD.
  Energy threshold   = 1.00e-08
  Density threshold  = 1.00e-08
  Integral threshold = 1.00e-12

  ==> Primary Basis <==

  Basis Set: AUG-CC-PVDZ
    Blend: AUG-CC-PVDZ
    Number of shells: 22
    Number of basis functions: 54
    Number of Cartesian functions: 58
    Spherical Harmonics?: true
    Max angular momentum: 2

   => Loading Basis Set <=

    Name: (AUG-CC-PVDZ AUX)
    Role: JKFIT
    Keyword: DF_BASIS_SCF
    atoms 1-2 entry AR         line   854 file /ext3/miniconda3/share/psi4/basis/aug-cc-pvdz-jkfit.gbs 

  ==> Integral Setup <==

  ==> DiskDFJK: Density-Fitted J/K Matrices <==

    J tasked:                  Yes
    K tasked:                  Yes
    wK tasked:                  No
    OpenMP threads:              1
    Integrals threads:           1
    Memory [MiB]:              429
    Algorithm:                Core
    Integral Cache:           NONE
    Schwarz Cutoff:          1E-12
    Fitting Condition:       1E-10

   => Auxiliary Basis Set <=

  Basis Set: (AUG-CC-PVDZ AUX)
    Blend: AUG-CC-PVDZ-JKFIT
    Number of shells: 80
    Number of basis functions: 256
    Number of Cartesian functions: 300
    Spherical Harmonics?: true
    Max angular momentum: 3

  Minimum eigenvalue in the overlap matrix is 2.8502018996E-02.
  Reciprocal condition number of the overlap matrix is 9.9001819426E-03.
    Using symmetric orthogonalization.

  ==> Pre-Iterations <==

  SCF Guess: Superposition of Atomic Densities via on-the-fly atomic UHF (no occupation information).

   -------------------------
    Irrep   Nso     Nmo    
   -------------------------
     A1        26      26 
     A2         4       4 
     B1        12      12 
     B2        12      12 
   -------------------------
    Total      54      54
   -------------------------

  ==> Iterations <==

                           Total Energy        Delta E     RMS |[F,P]|

   @DF-RHF iter SAD:  -526.79237813387965   -5.26792e+02   0.00000e+00 
   @DF-RHF iter   1:  -526.80076239020070   -8.38426e-03   7.27730e-04 DIIS/ADIIS
   @DF-RHF iter   2:  -526.80099837134935   -2.35981e-04   1.93068e-04 DIIS/ADIIS
   @DF-RHF iter   3:  -526.80101317564379   -1.48043e-05   4.64190e-06 DIIS
   @DF-RHF iter   4:  -526.80101319192636   -1.62826e-08   7.06026e-07 DIIS
   @DF-RHF iter   5:  -526.80101319253856   -6.12204e-10   3.44515e-08 DIIS
   @DF-RHF iter   6:  -526.80101319254015   -1.59162e-12   7.92401e-09 DIIS
  Energy and wave function converged.


  ==> Post-Iterations <==

    Orbital Energies [Eh]
    ---------------------

    Doubly Occupied:                                                      

       1A1  -118.610627     2A1   -12.322774     1B2    -9.571358  
       1B1    -9.571358     3A1    -9.571357     4A1    -1.278860  
       5A1    -0.592231     2B2    -0.592219     2B1    -0.592219  

    Virtual:                                                              

       6A1     0.088357     3B1     0.120381     3B2     0.120381  
       7A1     0.126241     8A1     0.165395     4B1     0.167753  
       4B2     0.167753     9A1     0.254381    10A1     0.497196  
       5B1     0.540867     5B2     0.540867    11A1     0.541340  
       1A2     0.541340    12A1     0.545148     6B1     0.576360  
       6B2     0.576360    13A1     0.629984     2A2     0.796674  
      14A1     0.796674     7B2     0.813147     7B1     0.813147  
      15A1     0.846347     8B1     0.974192     8B2     0.974192  
      16A1     1.056221    17A1     1.368606     3A2     1.610419  
      18A1     1.610419     9B2     1.621722     9B1     1.621722  
      19A1     1.697210    20A1     1.929179    10B1     2.441050  
      10B2     2.441050    21A1     2.470640     4A2     3.103994  
      22A1     3.103994    11B1     3.113349    11B2     3.113349  
      23A1     3.179710    24A1     9.193446    12B2    27.720648  
      12B1    27.720648    25A1    27.744146    26A1   176.828038  

    Final Occupation by Irrep:
             A1    A2    B1    B2 
    DOCC [     5,    0,    2,    2 ]
    NA   [     5,    0,    2,    2 ]
    NB   [     5,    0,    2,    2 ]

  @DF-RHF Final Energy:  -526.80101319254015

   => Energetics <=

    Nuclear Repulsion Energy =              0.0000000000000000
    One-Electron Energy =                -728.1960186044641432
    Two-Electron Energy =                 201.3950054119239894
    Total Energy =                       -526.8010131925401538

Computation Completed


Properties will be evaluated at   0.000000,   0.000000,   0.000000 [a0]

Properties computed using the SCF density matrix


 Multipole Moments:

 ------------------------------------------------------------------------------------
     Multipole            Electronic (a.u.)      Nuclear  (a.u.)        Total (a.u.)
 ------------------------------------------------------------------------------------

 L = 1.  Multiply by 2.5417464519 to convert [e a0] to [Debye]
 Dipole X            :          0.0000000            0.0000000            0.0000000
 Dipole Y            :          0.0000000            0.0000000            0.0000000
 Dipole Z            :         59.5249921          -59.5263730           -0.0013808
 Magnitude           :                                                    0.0013808

 ------------------------------------------------------------------------------------

*** tstop() called on cs042.hpc.nyu.edu at Tue Nov 15 15:32:46 2022
Module time:
	user time   =       0.44 seconds =       0.01 minutes
	system time =       0.03 seconds =       0.00 minutes
	total time  =          5 seconds =       0.08 minutes
Total time:
	user time   =      93.25 seconds =       1.55 minutes
	system time =      12.70 seconds =       0.21 minutes
	total time  =       3179 seconds =      52.98 minutes
 MINTS: Wrapper to libmints.
   by Justin Turney

   Calculation information:
      Number of threads:                 1
      Number of atoms:                   2
      Number of AO shells:              22
      Number of SO shells:              22
      Number of primitives:            106
      Number of atomic orbitals:        58
      Number of basis functions:        54

      Number of irreps:                  4
      Integral cutoff                 1.00e-12
      Number of functions per irrep: [  26    4   12   12 ]

 OEINTS: Overlap, kinetic, potential, dipole, and quadrupole integrals
         stored in file 35.

      Computing two-electron integrals...done
      Computed 232921 non-zero two-electron integrals.
        Stored in file 33.


*** tstart() called on cs042.hpc.nyu.edu
*** at Tue Nov 15 15:32:47 2022


	Wfn Parameters:
	--------------------
	Wavefunction         = CCSD_T
	Number of irreps     = 4
	Number of MOs        = 54
	Number of active MOs = 49
	AO-Basis             = NONE
	Semicanonical        = false
	Reference            = RHF
	Print Level          = 1

	IRREP	# MOs	# FZDC	# DOCC	# SOCC	# VIRT	# FZVR
	-----	-----	------	------	------	------	------
	 A1	   26	    3	    2	    0	    21	    0
	 A2	   4	    0	    0	    0	    4	    0
	 B1	   12	    1	    1	    0	    10	    0
	 B2	   12	    1	    1	    0	    10	    0
	Transforming integrals...
	IWL integrals will be deleted.
	(OO|OO)...
	Presorting SO-basis two-electron integrals.
	Sorting File: SO Ints (nn|nn) nbuckets = 1
	Constructing frozen core operators
	Starting first half-transformation.
	Sorting half-transformed integrals.
	First half integral transformation complete.
	Starting second half-transformation.
	Two-electron integral transformation complete.
	(OO|OV)...
	Starting second half-transformation.
	Two-electron integral transformation complete.
	(OO|VV)...
	Starting second half-transformation.
	Two-electron integral transformation complete.
	(OV|OO)...
	Starting first half-transformation.
	Sorting half-transformed integrals.
	First half integral transformation complete.
	Starting second half-transformation.
	Two-electron integral transformation complete.
	(OV|OV)...
	Starting second half-transformation.
	Two-electron integral transformation complete.
	(OV|VV)...
	Starting second half-transformation.
	Two-electron integral transformation complete.
	(VV|OO)...
	Starting first half-transformation.
	Sorting half-transformed integrals.
	First half integral transformation complete.
	Starting second half-transformation.
	Two-electron integral transformation complete.
	(VV|OV)...
	Starting second half-transformation.
	Two-electron integral transformation complete.
	(VV|VV)...
	Starting second half-transformation.
	Two-electron integral transformation complete.
	Frozen core energy     =   -505.93058859379920

	Size of irrep 0 of <ab|cd> integrals:      0.432 (MW) /      3.453 (MB)
	Size of irrep 1 of <ab|cd> integrals:      0.135 (MW) /      1.083 (MB)
	Size of irrep 2 of <ab|cd> integrals:      0.250 (MW) /      2.000 (MB)
	Size of irrep 3 of <ab|cd> integrals:      0.250 (MW) /      2.000 (MB)
	Total:                                     1.067 (MW) /      8.537 (MB)

	Size of irrep 0 of <ia|bc> integrals:      0.041 (MW) /      0.326 (MB)
	Size of irrep 1 of <ia|bc> integrals:      0.010 (MW) /      0.082 (MB)
	Size of irrep 2 of <ia|bc> integrals:      0.022 (MW) /      0.180 (MB)
	Size of irrep 3 of <ia|bc> integrals:      0.022 (MW) /      0.180 (MB)
	Total:                                     0.096 (MW) /      0.768 (MB)

	Size of irrep 0 of tijab amplitudes:       0.004 (MW) /      0.032 (MB)
	Size of irrep 1 of tijab amplitudes:       0.001 (MW) /      0.006 (MB)
	Size of irrep 2 of tijab amplitudes:       0.002 (MW) /      0.016 (MB)
	Size of irrep 3 of tijab amplitudes:       0.002 (MW) /      0.016 (MB)
	Total:                                     0.009 (MW) /      0.069 (MB)

	Nuclear Rep. energy          =      0.00000000000000
	SCF energy                   =   -526.80101319254015
	One-electron energy          =    -35.62980647254827
	Two-electron energy          =     14.75938696395969
	Reference energy             =   -526.80100810238775

*** tstop() called on cs042.hpc.nyu.edu at Tue Nov 15 15:32:47 2022
Module time:
	user time   =       0.10 seconds =       0.00 minutes
	system time =       0.05 seconds =       0.00 minutes
	total time  =          0 seconds =       0.00 minutes
Total time:
	user time   =      94.78 seconds =       1.58 minutes
	system time =      12.75 seconds =       0.21 minutes
	total time  =       3180 seconds =      53.00 minutes
            **************************
            *                        *
            *        CCENERGY        *
            *                        *
            **************************

    Nuclear Rep. energy (wfn)     =    0.000000000000000
    SCF energy          (wfn)     = -526.801013192540154
    Reference energy    (file100) = -526.801008102387755

    Input parameters:
    -----------------
    Wave function   =     CCSD_T
    Reference wfn   =     RHF
    Brueckner       =     No
    Memory (Mbytes) =     600.0
    Maxiter         =     50
    R_Convergence   =     1.0e-07
    E_Convergence   =     1.0e-06
    Restart         =     Yes
    DIIS            =     Yes
    AO Basis        =     NONE
    ABCD            =     NEW
    Cache Level     =     2
    Cache Type      =     LOW
    Print Level     =     1
    Num. of threads =     1
    # Amps to Print =     10
    Print MP2 Amps? =     No
    Analyze T2 Amps =     No
    Print Pair Ener =     No
    Local CC        =     No
    SCS-MP2         =     False
    SCSN-MP2        =     False
    SCS-CCSD        =     False

MP2 correlation energy -0.1543964445432991
                Solving CC Amplitude Equations
                ------------------------------
  Iter             Energy              RMS        T1Diag      D1Diag    New D1Diag    D2Diag
  ----     ---------------------    ---------   ----------  ----------  ----------   --------
     0        -0.154396444543299    0.000e+00    0.000000    0.000000    0.000000    0.104851
     1        -0.164393966298459    2.263e-02    0.002855    0.004538    0.004538    0.113959
     2        -0.166148282673553    5.772e-03    0.003407    0.005322    0.005322    0.116566
     3        -0.166258434150383    1.093e-03    0.003670    0.005747    0.005747    0.116891
     4        -0.166260361556169    2.265e-04    0.003711    0.005802    0.005802    0.116943
     5        -0.166257552111223    4.830e-05    0.003718    0.005813    0.005813    0.116939
     6        -0.166257385713999    1.196e-05    0.003719    0.005814    0.005814    0.116938
     7        -0.166257482628390    3.398e-06    0.003719    0.005815    0.005815    0.116938
     8        -0.166257502098891    7.620e-07    0.003719    0.005814    0.005814    0.116938
     9        -0.166257501237812    1.859e-07    0.003719    0.005814    0.005814    0.116938
    10        -0.166257501185950    5.651e-08    0.003719    0.005814    0.005814    0.116938

    Iterations converged.


    Largest TIA Amplitudes:
              1   2        -0.0047303021
              2  26         0.0044566762
              3  36         0.0044566762
              2  25         0.0029524060
              3  35         0.0029524060
              0  11         0.0024971706
              2  30        -0.0022323356
              3  40        -0.0022323356
              1   0         0.0021258242
              1   9         0.0016341608

    Largest TIjAb Amplitudes:
      2   2   5   5        -0.0281116690
      2   2  21  21        -0.0281116690
      3   3   5   5        -0.0281116690
      3   3  21  21        -0.0281116690
      2   2  30  30        -0.0271435546
      3   3  40  40        -0.0271435546
      1   1  27  27        -0.0270195816
      1   1  37  37        -0.0270195816
      2   2  27  27        -0.0270066879
      3   3  37  37        -0.0270066879

    SCF energy       (wfn)                    = -526.801013192540154
    Reference energy (file100)                = -526.801008102387755

    Opposite-spin MP2 correlation energy      =   -0.112053781665466
    Same-spin MP2 correlation energy          =   -0.042342662877833
    Singles MP2 correlation energy            =   -0.000000000000000
    MP2 correlation energy                    =   -0.154396444543299
      * MP2 total energy                      = -526.955404546931049

    Opposite-spin CCSD correlation energy     =   -0.125330051142355
    Same-spin CCSD correlation energy         =   -0.040927450043595
    Singles CCSD correlation energy           =    0.000000000000000
    CCSD correlation energy                   =   -0.166257501185950
      * CCSD total energy                     = -526.967265603573651

            **************************
            *                        *
            *        CCTRIPLES       *
            *                        *
            **************************


    Wave function   =    CCSD_T
    Reference wfn   =      RHF

    Nuclear Rep. energy (wfn)                =    0.000000000000000
    SCF energy          (wfn)                = -526.801013192540154
    Reference energy    (file100)            = -526.801008102387755
    CCSD energy         (file100)            =   -0.166257501185950
    Total CCSD energy   (file100)            = -526.967265603573651

    Number of ijk index combinations:               20
    Memory available in words               :        75000000
    Approx. words needed per explicit thread:           37044
    Number of threads for explicit ijk threading:    1

    MKL num_threads set to 1 for explicit threading.

    (T) energy                                =   -0.002532155228791
      * CCSD(T) total energy                  = -526.969797758802542


    Psi4 stopped on: Tuesday, 15 November 2022 03:32PM
    Psi4 wall time for execution: 0:00:07.01


    -----------------------------------------------------------------------
          Psi4: An Open-Source Ab Initio Electronic Structure Package
                               Psi4 1.7a1.dev44 

                         Git: Rev {master} 2792bff 


    D. G. A. Smith, L. A. Burns, A. C. Simmonett, R. M. Parrish,
    M. C. Schieber, R. Galvelis, P. Kraus, H. Kruse, R. Di Remigio,
    A. Alenaizan, A. M. James, S. Lehtola, J. P. Misiewicz, M. Scheurer,
    R. A. Shaw, J. B. Schriber, Y. Xie, Z. L. Glick, D. A. Sirianni,
    J. S. O'Brien, J. M. Waldrop, A. Kumar, E. G. Hohenstein,
    B. P. Pritchard, B. R. Brooks, H. F. Schaefer III, A. Yu. Sokolov,
    K. Patkowski, A. E. DePrince III, U. Bozkaya, R. A. King,
    F. A. Evangelista, J. M. Turney, T. D. Crawford, C. D. Sherrill,
    J. Chem. Phys. 152(18) 184108 (2020). https://doi.org/10.1063/5.0006002

                            Additional Code Authors
    E. T. Seidl, C. L. Janssen, E. F. Valeev, M. L. Leininger,
    J. F. Gonthier, R. M. Richard, H. R. McAlexander, M. Saitow, X. Wang,
    P. Verma, M. H. Lechner, and A. Jiang

             Previous Authors, Complete List of Code Contributors,
                       and Citations for Specific Modules
    https://github.com/psi4/psi4/blob/master/codemeta.json
    https://github.com/psi4/psi4/graphs/contributors
    http://psicode.org/psi4manual/master/introduction.html#citing-psifour

    -----------------------------------------------------------------------


    Psi4 started on: Tuesday, 15 November 2022 02:37PM

    Process ID: 3145569
    Host:       cs042.hpc.nyu.edu
    PSIDATADIR: /ext3/miniconda3/share/psi4
    Memory:     572.2 MiB
    Threads:    1
    
  ==> Input QCSchema <==

--------------------------------------------------------------------------
{'driver': 'energy',
 'extras': {'psiapi': True, 'wfn_qcvars_only': True},
 'id': None,
 'keywords': {'DF_INTS_IO': 'NONE',
              'FREEZE_CORE': 'TRUE',
              'REFERENCE': 'RHF',
              'SAPT__D_CONVERGENCE': 1e-09,
              'SAPT__E_CONVERGENCE': 1e-09,
              'SAPT__SAPT_LEVEL': 'SAPT0',
              'SCF_TYPE': 'DF',
              'SCF__INTS_TOLERANCE': 1e-12,
              'function_kwargs': {}},
 'model': {'basis': 'aug-cc-pvdz', 'method': 'ccsd(t)'},
 'molecule': {'atom_labels': ['', ''],
              'atomic_numbers': [18, 18],
              'fix_com': True,
              'fix_orientation': True,
              'fragment_charges': [0.0, 0.0],
              'fragment_multiplicities': [1, 1],
              'fragments': [[0], [1]],
              'geometry': [0.0, 0.0, -3.3070207195512, 0.0, 0.0, 3.3070207195512],
              'mass_numbers': [40, 40],
              'masses': [39.9623831237, 39.9623831237],
              'molecular_charge': 0.0,
              'molecular_multiplicity': 1,
              'name': 'Ar2',
              'provenance': {'creator': 'QCElemental',
                             'routine': 'qcelemental.molparse.from_string',
                             'version': 'v0.25.1'},
              'real': [True, True],
              'schema_name': 'qcschema_molecule',
              'schema_version': 2,
              'symbols': ['Ar', 'Ar'],
              'validated': True},
 'protocols': {'stdout': True},
 'provenance': {'creator': 'QCElemental', 'routine': 'qcelemental.models.results', 'version': 'v0.25.1'},
 'schema_name': 'qcschema_input',
 'schema_version': 1}
--------------------------------------------------------------------------

Scratch directory: /tmp/

*** tstart() called on cs042.hpc.nyu.edu
*** at Tue Nov 15 15:32:48 2022

   => Loading Basis Set <=

    Name: AUG-CC-PVDZ
    Role: ORBITAL
    Keyword: BASIS
    atoms 1-2 entry AR         line   834 file /ext3/miniconda3/share/psi4/basis/aug-cc-pvdz.gbs 


         ---------------------------------------------------------
                                   SCF
               by Justin Turney, Rob Parrish, Andy Simmonett
                          and Daniel G. A. Smith
                              RHF Reference
                        1 Threads,    572 MiB Core
         ---------------------------------------------------------

  ==> Geometry <==

    Molecular point group: d2h
    Full point group: D_inf_h

    Geometry (in Bohr), charge = 0, multiplicity = 1:

       Center              X                  Y                   Z               Mass       
    ------------   -----------------  -----------------  -----------------  -----------------
         AR           0.000000000000     0.000000000000    -3.307020719551    39.962383123700
         AR           0.000000000000     0.000000000000     3.307020719551    39.962383123700

  Running in d2h symmetry.

  Rotational constants: A = ************  B =      0.06887  C =      0.06887 [cm^-1]
  Rotational constants: A = ************  B =   2064.71317  C =   2064.71317 [MHz]
  Nuclear repulsion =   48.986690359165706

  Charge       = 0
  Multiplicity = 1
  Electrons    = 36
  Nalpha       = 18
  Nbeta        = 18

  ==> Algorithm <==

  SCF Algorithm Type is DF.
  DIIS enabled.
  MOM disabled.
  Fractional occupation disabled.
  Guess Type is SAD.
  Energy threshold   = 1.00e-08
  Density threshold  = 1.00e-08
  Integral threshold = 1.00e-12

  ==> Primary Basis <==

  Basis Set: AUG-CC-PVDZ
    Blend: AUG-CC-PVDZ
    Number of shells: 22
    Number of basis functions: 54
    Number of Cartesian functions: 58
    Spherical Harmonics?: true
    Max angular momentum: 2

   => Loading Basis Set <=

    Name: (AUG-CC-PVDZ AUX)
    Role: JKFIT
    Keyword: DF_BASIS_SCF
    atoms 1-2 entry AR         line   854 file /ext3/miniconda3/share/psi4/basis/aug-cc-pvdz-jkfit.gbs 

  ==> Integral Setup <==

  ==> DiskDFJK: Density-Fitted J/K Matrices <==

    J tasked:                  Yes
    K tasked:                  Yes
    wK tasked:                  No
    OpenMP threads:              1
    Integrals threads:           1
    Memory [MiB]:              429
    Algorithm:                Core
    Integral Cache:           NONE
    Schwarz Cutoff:          1E-12
    Fitting Condition:       1E-10

   => Auxiliary Basis Set <=

  Basis Set: (AUG-CC-PVDZ AUX)
    Blend: AUG-CC-PVDZ-JKFIT
    Number of shells: 80
    Number of basis functions: 256
    Number of Cartesian functions: 300
    Spherical Harmonics?: true
    Max angular momentum: 3

  Minimum eigenvalue in the overlap matrix is 3.1625788420E-02.
  Reciprocal condition number of the overlap matrix is 1.1857516890E-02.
    Using symmetric orthogonalization.

  ==> Pre-Iterations <==

  SCF Guess: Superposition of Atomic Densities via on-the-fly atomic UHF (no occupation information).

   -------------------------
    Irrep   Nso     Nmo    
   -------------------------
     Ag        13      13 
     B1g        2       2 
     B2g        6       6 
     B3g        6       6 
     Au         2       2 
     B1u       13      13 
     B2u        6       6 
     B3u        6       6 
   -------------------------
    Total      54      54
   -------------------------

  ==> Iterations <==

                           Total Energy        Delta E     RMS |[F,P]|

   @DF-RHF iter SAD: -1053.58737434360432   -1.05359e+03   0.00000e+00 
   @DF-RHF iter   1: -1053.60043107740080   -1.30567e-02   1.47617e-03 DIIS/ADIIS
   @DF-RHF iter   2: -1053.60091138167513   -4.80304e-04   3.84731e-04 DIIS/ADIIS
   @DF-RHF iter   3: -1053.60094099743128   -2.96158e-05   1.15864e-05 DIIS
   @DF-RHF iter   4: -1053.60094107147825   -7.40470e-08   2.79937e-06 DIIS
   @DF-RHF iter   5: -1053.60094107716304   -5.68480e-09   2.99461e-07 DIIS
   @DF-RHF iter   6: -1053.60094107720329   -4.02451e-11   6.66472e-08 DIIS
   @DF-RHF iter   7: -1053.60094107720420   -9.09495e-13   1.14226e-08 DIIS
   @DF-RHF iter   8: -1053.60094107720465   -4.54747e-13   1.69033e-09 DIIS
  Energy and wave function converged.


  ==> Post-Iterations <==

    Orbital Energies [Eh]
    ---------------------

    Doubly Occupied:                                                      

       1B1u -118.609824     1Ag  -118.609824     2B1u  -12.322079  
       2Ag   -12.322069     1B3g   -9.570654     1B2g   -9.570654  
       1B2u   -9.570653     1B3u   -9.570653     3B1u   -9.570650  
       3Ag    -9.570648     4Ag    -1.280105     4B1u   -1.277109  
       5Ag    -0.604304     2B2u   -0.593757     2B3u   -0.593757  
       2B3g   -0.590037     2B2g   -0.590037     5B1u   -0.579978  

    Virtual:                                                              

       6B1u    0.130479     3B2u    0.138249     3B3u    0.138249  
       6Ag     0.147836     3B3g    0.175613     3B2g    0.175613  
       7Ag     0.184441     7B1u    0.282741     8Ag     0.484124  
       4B3u    0.510829     4B2u    0.510829     9Ag     0.536930  
       1B1g    0.536930     8B1u    0.546184     1Au     0.546184  
       4B2g    0.585347     4B3g    0.585347     9B1u    0.666850  
      10Ag     0.939241     5B2u    0.963134     5B3u    0.963134  
       5B3g    0.985331     5B2g    0.985331    10B1u    1.053752  
      11Ag     1.333508    11B1u    1.408677     6B2u    1.573225  
       6B3u    1.573225    12Ag     1.596770    13Ag     1.604430  
       2B1g    1.604430    12B1u    1.616961     2Au     1.616961  
       6B3g    1.669390     6B2g    1.669390    13B1u    1.824361  

    Final Occupation by Irrep:
             Ag   B1g   B2g   B3g    Au   B1u   B2u   B3u 
    DOCC [     5,    0,    2,    2,    0,    5,    2,    2 ]
    NA   [     5,    0,    2,    2,    0,    5,    2,    2 ]
    NB   [     5,    0,    2,    2,    0,    5,    2,    2 ]

  @DF-RHF Final Energy: -1053.60094107720465

   => Energetics <=

    Nuclear Repulsion Energy =             48.9866903591657064
    One-Electron Energy =               -1554.3816795528691728
    Two-Electron Energy =                 451.7940481164986863
    Total Energy =                      -1053.6009410772046522

Computation Completed


Properties will be evaluated at   0.000000,   0.000000,   0.000000 [a0]

Properties computed using the SCF density matrix


 Multipole Moments:

 ------------------------------------------------------------------------------------
     Multipole            Electronic (a.u.)      Nuclear  (a.u.)        Total (a.u.)
 ------------------------------------------------------------------------------------

 L = 1.  Multiply by 2.5417464519 to convert [e a0] to [Debye]
 Dipole X            :          0.0000000            0.0000000            0.0000000
 Dipole Y            :          0.0000000            0.0000000            0.0000000
 Dipole Z            :          0.0000000           -0.0000000           -0.0000000
 Magnitude           :                                                    0.0000000

 ------------------------------------------------------------------------------------

*** tstop() called on cs042.hpc.nyu.edu at Tue Nov 15 15:32:48 2022
Module time:
	user time   =       0.48 seconds =       0.01 minutes
	system time =       0.04 seconds =       0.00 minutes
	total time  =          0 seconds =       0.00 minutes
Total time:
	user time   =      95.43 seconds =       1.59 minutes
	system time =      12.90 seconds =       0.21 minutes
	total time  =       3181 seconds =      53.02 minutes
 MINTS: Wrapper to libmints.
   by Justin Turney

   Calculation information:
      Number of threads:                 1
      Number of atoms:                   2
      Number of AO shells:              22
      Number of SO shells:              11
      Number of primitives:            106
      Number of atomic orbitals:        58
      Number of basis functions:        54

      Number of irreps:                  8
      Integral cutoff                 1.00e-12
      Number of functions per irrep: [  13    2    6    6    2   13    6    6 ]

 OEINTS: Overlap, kinetic, potential, dipole, and quadrupole integrals
         stored in file 35.

      Computing two-electron integrals...done
      Computed 134055 non-zero two-electron integrals.
        Stored in file 33.


*** tstart() called on cs042.hpc.nyu.edu
*** at Tue Nov 15 15:32:49 2022


	Wfn Parameters:
	--------------------
	Wavefunction         = CCSD_T
	Number of irreps     = 8
	Number of MOs        = 54
	Number of active MOs = 44
	AO-Basis             = NONE
	Semicanonical        = false
	Reference            = RHF
	Print Level          = 1

	IRREP	# MOs	# FZDC	# DOCC	# SOCC	# VIRT	# FZVR
	-----	-----	------	------	------	------	------
	 Ag	   13	    3	    2	    0	    8	    0
	 B1g	   2	    0	    0	    0	    2	    0
	 B2g	   6	    1	    1	    0	    4	    0
	 B3g	   6	    1	    1	    0	    4	    0
	 Au	   2	    0	    0	    0	    2	    0
	 B1u	   13	    3	    2	    0	    8	    0
	 B2u	   6	    1	    1	    0	    4	    0
	 B3u	   6	    1	    1	    0	    4	    0
	Transforming integrals...
	IWL integrals will be deleted.
	(OO|OO)...
	Presorting SO-basis two-electron integrals.
	Sorting File: SO Ints (nn|nn) nbuckets = 1
	Constructing frozen core operators
	Starting first half-transformation.
	Sorting half-transformed integrals.
	First half integral transformation complete.
	Starting second half-transformation.
	Two-electron integral transformation complete.
	(OO|OV)...
	Starting second half-transformation.
	Two-electron integral transformation complete.
	(OO|VV)...
	Starting second half-transformation.
	Two-electron integral transformation complete.
	(OV|OO)...
	Starting first half-transformation.
	Sorting half-transformed integrals.
	First half integral transformation complete.
	Starting second half-transformation.
	Two-electron integral transformation complete.
	(OV|OV)...
	Starting second half-transformation.
	Two-electron integral transformation complete.
	(OV|VV)...
	Starting second half-transformation.
	Two-electron integral transformation complete.
	(VV|OO)...
	Starting first half-transformation.
	Sorting half-transformed integrals.
	First half integral transformation complete.
	Starting second half-transformation.
	Two-electron integral transformation complete.
	(VV|OV)...
	Starting second half-transformation.
	Two-electron integral transformation complete.
	(VV|VV)...
	Starting second half-transformation.
	Two-electron integral transformation complete.
	Frozen core energy     =  -1051.17146563312690

	Size of irrep 0 of <ab|cd> integrals:      0.040 (MW) /      0.320 (MB)
	Size of irrep 1 of <ab|cd> integrals:      0.016 (MW) /      0.131 (MB)
	Size of irrep 2 of <ab|cd> integrals:      0.026 (MW) /      0.205 (MB)
	Size of irrep 3 of <ab|cd> integrals:      0.026 (MW) /      0.205 (MB)
	Size of irrep 4 of <ab|cd> integrals:      0.016 (MW) /      0.131 (MB)
	Size of irrep 5 of <ab|cd> integrals:      0.040 (MW) /      0.320 (MB)
	Size of irrep 6 of <ab|cd> integrals:      0.026 (MW) /      0.205 (MB)
	Size of irrep 7 of <ab|cd> integrals:      0.026 (MW) /      0.205 (MB)
	Total:                                     0.215 (MW) /      1.721 (MB)

	Size of irrep 0 of <ia|bc> integrals:      0.010 (MW) /      0.077 (MB)
	Size of irrep 1 of <ia|bc> integrals:      0.003 (MW) /      0.025 (MB)
	Size of irrep 2 of <ia|bc> integrals:      0.006 (MW) /      0.046 (MB)
	Size of irrep 3 of <ia|bc> integrals:      0.006 (MW) /      0.046 (MB)
	Size of irrep 4 of <ia|bc> integrals:      0.003 (MW) /      0.025 (MB)
	Size of irrep 5 of <ia|bc> integrals:      0.010 (MW) /      0.077 (MB)
	Size of irrep 6 of <ia|bc> integrals:      0.006 (MW) /      0.046 (MB)
	Size of irrep 7 of <ia|bc> integrals:      0.006 (MW) /      0.046 (MB)
	Total:                                     0.048 (MW) /      0.387 (MB)

	Size of irrep 0 of tijab amplitudes:       0.002 (MW) /      0.019 (MB)
	Size of irrep 1 of tijab amplitudes:       0.001 (MW) /      0.004 (MB)
	Size of irrep 2 of tijab amplitudes:       0.001 (MW) /      0.010 (MB)
	Size of irrep 3 of tijab amplitudes:       0.001 (MW) /      0.010 (MB)
	Size of irrep 4 of tijab amplitudes:       0.001 (MW) /      0.004 (MB)
	Size of irrep 5 of tijab amplitudes:       0.002 (MW) /      0.019 (MB)
	Size of irrep 6 of tijab amplitudes:       0.001 (MW) /      0.010 (MB)
	Size of irrep 7 of tijab amplitudes:       0.001 (MW) /      0.010 (MB)
	Total:                                     0.011 (MW) /      0.088 (MB)

	Nuclear Rep. energy          =     48.98669035916571
	SCF energy                   =  -1053.60094107720465
	One-electron energy          =    -90.61420045245841
	Two-electron energy          =     39.19802634610637
	Reference energy             =  -1053.60094938031330

*** tstop() called on cs042.hpc.nyu.edu at Tue Nov 15 15:32:49 2022
Module time:
	user time   =       0.06 seconds =       0.00 minutes
	system time =       0.04 seconds =       0.00 minutes
	total time  =          0 seconds =       0.00 minutes
Total time:
	user time   =      96.35 seconds =       1.61 minutes
	system time =      12.94 seconds =       0.22 minutes
	total time  =       3182 seconds =      53.03 minutes
            **************************
            *                        *
            *        CCENERGY        *
            *                        *
            **************************

    Nuclear Rep. energy (wfn)     =   48.986690359165706
    SCF energy          (wfn)     = -1053.600941077204652
    Reference energy    (file100) = -1053.600949380313295

    Input parameters:
    -----------------
    Wave function   =     CCSD_T
    Reference wfn   =     RHF
    Brueckner       =     No
    Memory (Mbytes) =     600.0
    Maxiter         =     50
    R_Convergence   =     1.0e-07
    E_Convergence   =     1.0e-06
    Restart         =     Yes
    DIIS            =     Yes
    AO Basis        =     NONE
    ABCD            =     NEW
    Cache Level     =     2
    Cache Type      =     LOW
    Print Level     =     1
    Num. of threads =     1
    # Amps to Print =     10
    Print MP2 Amps? =     No
    Analyze T2 Amps =     No
    Print Pair Ener =     No
    Local CC        =     No
    SCS-MP2         =     False
    SCSN-MP2        =     False
    SCS-CCSD        =     False

MP2 correlation energy -0.3097279542129858
                Solving CC Amplitude Equations
                ------------------------------
  Iter             Energy              RMS        T1Diag      D1Diag    New D1Diag    D2Diag
  ----     ---------------------    ---------   ----------  ----------  ----------   --------
     0        -0.309727954212986    0.000e+00    0.000000    0.000000    0.000000    0.106114
     1        -0.329486029829556    3.209e-02    0.002961    0.005685    0.005685    0.115124
     2        -0.333011014087361    8.192e-03    0.003521    0.006672    0.006672    0.117793
     3        -0.333235693433390    1.579e-03    0.003796    0.007193    0.007193    0.118127
     4        -0.333239033655980    3.230e-04    0.003839    0.007267    0.007267    0.118184
     5        -0.333233275829730    6.546e-05    0.003847    0.007280    0.007280    0.118181
     6        -0.333233125266084    1.316e-05    0.003849    0.007281    0.007281    0.118180
     7        -0.333233301166082    3.944e-06    0.003849    0.007281    0.007281    0.118180
     8        -0.333233327362821    8.437e-07    0.003849    0.007281    0.007281    0.118180
     9        -0.333233323690485    1.988e-07    0.003849    0.007281    0.007281    0.118180
    10        -0.333233324370693    6.181e-08    0.003849    0.007281    0.007281    0.118180

    Iterations converged.


    Largest TIA Amplitudes:
              1   1        -0.0063927305
              6  28         0.0060239324
              7  32         0.0060239324
              2  10         0.0049074287
              3  14         0.0049074287
              5  20        -0.0044648002
              1   4         0.0028183270
              4  25         0.0025676301
              0   5         0.0024566641
              6  30        -0.0023941518

    Largest TIjAb Amplitudes:
      1   1   2   2        -0.0211981968
      5   5  23  23        -0.0194023257
      1   5   2  23         0.0183107195
      5   1  23   2         0.0183107195
      1   1  23  23        -0.0167755119
      5   5   2   2        -0.0164007627
      5   5  11  11        -0.0150533103
      5   5  15  15        -0.0150533103
      5   5   4   4        -0.0149373486
      2   2  11  11        -0.0148994634

    SCF energy       (wfn)                    = -1053.600941077204652
    Reference energy (file100)                = -1053.600949380313295

    Opposite-spin MP2 correlation energy      =   -0.224552442218411
    Same-spin MP2 correlation energy          =   -0.085175511994575
    Singles MP2 correlation energy            =   -0.000000000000000
    MP2 correlation energy                    =   -0.309727954212986
      * MP2 total energy                      = -1053.910677334526326

    Opposite-spin CCSD correlation energy     =   -0.250958466476564
    Same-spin CCSD correlation energy         =   -0.082274857894129
    Singles CCSD correlation energy           =    0.000000000000000
    CCSD correlation energy                   =   -0.333233324370693
      * CCSD total energy                     = -1053.934182704683963

            **************************
            *                        *
            *        CCTRIPLES       *
            *                        *
            **************************


    Wave function   =    CCSD_T
    Reference wfn   =      RHF

    Nuclear Rep. energy (wfn)                =   48.986690359165706
    SCF energy          (wfn)                = -1053.600941077204652
    Reference energy    (file100)            = -1053.600949380313295
    CCSD energy         (file100)            =   -0.333233324370693
    Total CCSD energy   (file100)            = -1053.934182704683963

    Number of ijk index combinations:              120
    Memory available in words               :        75000000
    Approx. words needed per explicit thread:            2048
    Number of threads for explicit ijk threading:    1

    MKL num_threads set to 1 for explicit threading.

    (T) energy                                =   -0.005142187245921
      * CCSD(T) total energy                  = -1053.939324891929800


    Psi4 stopped on: Tuesday, 15 November 2022 03:32PM
    Psi4 wall time for execution: 0:00:01.85


  //>>>>>>>>>>>>>>>>>>>>>>>>>>>>>>>>>>>//
  //          ManyBody Results         //
  //<<<<<<<<<<<<<<<<<<<<<<<<<<<<<<<<<<<//


   ==> N-Body: Counterpoise Corrected (CP) energies <==

        n-Body     Total Energy            Interaction Energy                          N-body Contribution to Interaction Energy
                   [Eh]                    [Eh]                  [kcal/mol]            [Eh]                  [kcal/mol]
             1  N/A                         0.000000000000        0.000000000000        0.000000000000        0.000000000000
  FULL/RTN   2  N/A                         0.000270625675        0.169820175088        0.000270625675        0.169820175088


Scratch directory: /tmp/

  //>>>>>>>>>>>>>>>>>>>>>>>>>>>>>>>>>>>>>//
  // ManyBody Setup: N-Body Levels [1, 2]//
  //<<<<<<<<<<<<<<<<<<<<<<<<<<<<<<<<<<<<<//

        Number of 1-body computations:     2
        Number of 2-body computations:     1

    -----------------------------------------------------------------------
          Psi4: An Open-Source Ab Initio Electronic Structure Package
                               Psi4 1.7a1.dev44 

                         Git: Rev {master} 2792bff 


    D. G. A. Smith, L. A. Burns, A. C. Simmonett, R. M. Parrish,
    M. C. Schieber, R. Galvelis, P. Kraus, H. Kruse, R. Di Remigio,
    A. Alenaizan, A. M. James, S. Lehtola, J. P. Misiewicz, M. Scheurer,
    R. A. Shaw, J. B. Schriber, Y. Xie, Z. L. Glick, D. A. Sirianni,
    J. S. O'Brien, J. M. Waldrop, A. Kumar, E. G. Hohenstein,
    B. P. Pritchard, B. R. Brooks, H. F. Schaefer III, A. Yu. Sokolov,
    K. Patkowski, A. E. DePrince III, U. Bozkaya, R. A. King,
    F. A. Evangelista, J. M. Turney, T. D. Crawford, C. D. Sherrill,
    J. Chem. Phys. 152(18) 184108 (2020). https://doi.org/10.1063/5.0006002

                            Additional Code Authors
    E. T. Seidl, C. L. Janssen, E. F. Valeev, M. L. Leininger,
    J. F. Gonthier, R. M. Richard, H. R. McAlexander, M. Saitow, X. Wang,
    P. Verma, M. H. Lechner, and A. Jiang

             Previous Authors, Complete List of Code Contributors,
                       and Citations for Specific Modules
    https://github.com/psi4/psi4/blob/master/codemeta.json
    https://github.com/psi4/psi4/graphs/contributors
    http://psicode.org/psi4manual/master/introduction.html#citing-psifour

    -----------------------------------------------------------------------


    Psi4 started on: Tuesday, 15 November 2022 02:37PM

    Process ID: 3145569
    Host:       cs042.hpc.nyu.edu
    PSIDATADIR: /ext3/miniconda3/share/psi4
    Memory:     572.2 MiB
    Threads:    1
    
  ==> Input QCSchema <==

--------------------------------------------------------------------------
{'driver': 'energy',
 'extras': {'psiapi': True, 'wfn_qcvars_only': True},
 'id': None,
 'keywords': {'DF_INTS_IO': 'NONE',
              'FREEZE_CORE': 'TRUE',
              'REFERENCE': 'RHF',
              'SAPT__D_CONVERGENCE': 1e-09,
              'SAPT__E_CONVERGENCE': 1e-09,
              'SAPT__SAPT_LEVEL': 'SAPT0',
              'SCF_TYPE': 'DF',
              'SCF__INTS_TOLERANCE': 1e-12,
              'function_kwargs': {}},
 'model': {'basis': 'aug-cc-pvdz', 'method': 'ccsd(t)'},
 'molecule': {'atom_labels': ['', ''],
              'atomic_numbers': [18, 18],
              'fix_com': True,
              'fix_orientation': True,
              'fragment_charges': [0.0, 0.0],
              'fragment_multiplicities': [1, 1],
              'fragments': [[0], [1]],
              'geometry': [0.0, 0.0, -3.779452250915657, 0.0, 0.0, 3.779452250915657],
              'mass_numbers': [40, 40],
              'masses': [39.9623831237, 39.9623831237],
              'molecular_charge': 0.0,
              'molecular_multiplicity': 1,
              'name': 'Ar2',
              'provenance': {'creator': 'QCElemental',
                             'routine': 'qcelemental.molparse.from_string',
                             'version': 'v0.25.1'},
              'real': [False, True],
              'schema_name': 'qcschema_molecule',
              'schema_version': 2,
              'symbols': ['Ar', 'Ar'],
              'validated': True},
 'protocols': {'stdout': True},
 'provenance': {'creator': 'QCElemental', 'routine': 'qcelemental.models.results', 'version': 'v0.25.1'},
 'schema_name': 'qcschema_input',
 'schema_version': 1}
--------------------------------------------------------------------------

Scratch directory: /tmp/

*** tstart() called on cs042.hpc.nyu.edu
*** at Tue Nov 15 15:32:50 2022

   => Loading Basis Set <=

    Name: AUG-CC-PVDZ
    Role: ORBITAL
    Keyword: BASIS
    atoms 1-2 entry AR         line   834 file /ext3/miniconda3/share/psi4/basis/aug-cc-pvdz.gbs 


         ---------------------------------------------------------
                                   SCF
               by Justin Turney, Rob Parrish, Andy Simmonett
                          and Daniel G. A. Smith
                              RHF Reference
                        1 Threads,    572 MiB Core
         ---------------------------------------------------------

  ==> Geometry <==

    Molecular point group: c2v
    Full point group: C_inf_v

    Geometry (in Bohr), charge = 0, multiplicity = 1:

       Center              X                  Y                   Z               Mass       
    ------------   -----------------  -----------------  -----------------  -----------------
      Gh(AR)          0.000000000000     0.000000000000    -3.779452250916    39.962383123700
         AR           0.000000000000     0.000000000000     3.779452250916    39.962383123700

  Running in c2v symmetry.

  Rotational constants: A = ************  B =      0.05273  C =      0.05273 [cm^-1]
  Rotational constants: A = ************  B =   1580.79602  C =   1580.79602 [MHz]
  Nuclear repulsion =    0.000000000000000

  Charge       = 0
  Multiplicity = 1
  Electrons    = 18
  Nalpha       = 9
  Nbeta        = 9

  ==> Algorithm <==

  SCF Algorithm Type is DF.
  DIIS enabled.
  MOM disabled.
  Fractional occupation disabled.
  Guess Type is SAD.
  Energy threshold   = 1.00e-08
  Density threshold  = 1.00e-08
  Integral threshold = 1.00e-12

  ==> Primary Basis <==

  Basis Set: AUG-CC-PVDZ
    Blend: AUG-CC-PVDZ
    Number of shells: 22
    Number of basis functions: 54
    Number of Cartesian functions: 58
    Spherical Harmonics?: true
    Max angular momentum: 2

   => Loading Basis Set <=

    Name: (AUG-CC-PVDZ AUX)
    Role: JKFIT
    Keyword: DF_BASIS_SCF
    atoms 1-2 entry AR         line   854 file /ext3/miniconda3/share/psi4/basis/aug-cc-pvdz-jkfit.gbs 

  ==> Integral Setup <==

  ==> DiskDFJK: Density-Fitted J/K Matrices <==

    J tasked:                  Yes
    K tasked:                  Yes
    wK tasked:                  No
    OpenMP threads:              1
    Integrals threads:           1
    Memory [MiB]:              429
    Algorithm:                Core
    Integral Cache:           NONE
    Schwarz Cutoff:          1E-12
    Fitting Condition:       1E-10

   => Auxiliary Basis Set <=

  Basis Set: (AUG-CC-PVDZ AUX)
    Blend: AUG-CC-PVDZ-JKFIT
    Number of shells: 80
    Number of basis functions: 256
    Number of Cartesian functions: 300
    Spherical Harmonics?: true
    Max angular momentum: 3

  Minimum eigenvalue in the overlap matrix is 3.4745158943E-02.
  Reciprocal condition number of the overlap matrix is 1.3114182307E-02.
    Using symmetric orthogonalization.

  ==> Pre-Iterations <==

  SCF Guess: Superposition of Atomic Densities via on-the-fly atomic UHF (no occupation information).

   -------------------------
    Irrep   Nso     Nmo    
   -------------------------
     A1        26      26 
     A2         4       4 
     B1        12      12 
     B2        12      12 
   -------------------------
    Total      54      54
   -------------------------

  ==> Iterations <==

                           Total Energy        Delta E     RMS |[F,P]|

   @DF-RHF iter SAD:  -526.79237821881827   -5.26792e+02   0.00000e+00 
   @DF-RHF iter   1:  -526.80075545028285   -8.37723e-03   7.27065e-04 DIIS/ADIIS
   @DF-RHF iter   2:  -526.80099144391920   -2.35994e-04   1.92941e-04 DIIS/ADIIS
   @DF-RHF iter   3:  -526.80100624917350   -1.48053e-05   4.62821e-06 DIIS
   @DF-RHF iter   4:  -526.80100626538967   -1.62162e-08   6.99127e-07 DIIS
   @DF-RHF iter   5:  -526.80100626599790   -6.08225e-10   4.40119e-08 DIIS
   @DF-RHF iter   6:  -526.80100626600029   -2.38742e-12   9.35232e-09 DIIS
  Energy and wave function converged.


  ==> Post-Iterations <==

    Orbital Energies [Eh]
    ---------------------

    Doubly Occupied:                                                      

       1A1  -118.610625     2A1   -12.322784     1B1    -9.571363  
       1B2    -9.571363     3A1    -9.571362     4A1    -1.278870  
       5A1    -0.592237     2B1    -0.592233     2B2    -0.592233  

    Virtual:                                                              

       6A1     0.087227     3B1     0.119279     3B2     0.119279  
       7A1     0.125551     8A1     0.160613     4B2     0.164115  
       4B1     0.164115     9A1     0.240704    10A1     0.506180  
       5B1     0.539837     5B2     0.539837    11A1     0.541425  
       1A2     0.541425    12A1     0.571020     6B1     0.579435  
       6B2     0.579435    13A1     0.590540     2A2     0.796579  
      14A1     0.796579     7B1     0.800923     7B2     0.800923  
      15A1     0.838313     8B1     0.974421     8B2     0.974421  
      16A1     0.991541    17A1     1.364310     3A2     1.610325  
      18A1     1.610325     9B1     1.613985     9B2     1.613985  
      19A1     1.644912    20A1     1.924898    10B1     2.440584  
      10B2     2.440584    21A1     2.451642    22A1     3.103933  
       4A2     3.103933    11B1     3.106957    11B2     3.106957  
      23A1     3.134192    24A1     9.189526    12B1    27.719755  
      12B2    27.719755    25A1    27.734556    26A1   176.819743  

    Final Occupation by Irrep:
             A1    A2    B1    B2 
    DOCC [     5,    0,    2,    2 ]
    NA   [     5,    0,    2,    2 ]
    NB   [     5,    0,    2,    2 ]

  @DF-RHF Final Energy:  -526.80100626600029

   => Energetics <=

    Nuclear Repulsion Energy =              0.0000000000000000
    One-Electron Energy =                -728.1958735474656805
    Two-Electron Energy =                 201.3948672814654515
    Total Energy =                       -526.8010062660002859

Computation Completed


Properties will be evaluated at   0.000000,   0.000000,   0.000000 [a0]

Properties computed using the SCF density matrix


 Multipole Moments:

 ------------------------------------------------------------------------------------
     Multipole            Electronic (a.u.)      Nuclear  (a.u.)        Total (a.u.)
 ------------------------------------------------------------------------------------

 L = 1.  Multiply by 2.5417464519 to convert [e a0] to [Debye]
 Dipole X            :          0.0000000            0.0000000            0.0000000
 Dipole Y            :          0.0000000            0.0000000            0.0000000
 Dipole Z            :        -68.0285269           68.0301405            0.0016136
 Magnitude           :                                                    0.0016136

 ------------------------------------------------------------------------------------

*** tstop() called on cs042.hpc.nyu.edu at Tue Nov 15 15:32:50 2022
Module time:
	user time   =       0.44 seconds =       0.01 minutes
	system time =       0.03 seconds =       0.00 minutes
	total time  =          0 seconds =       0.00 minutes
Total time:
	user time   =      97.08 seconds =       1.62 minutes
	system time =      13.08 seconds =       0.22 minutes
	total time  =       3183 seconds =      53.05 minutes
 MINTS: Wrapper to libmints.
   by Justin Turney

   Calculation information:
      Number of threads:                 1
      Number of atoms:                   2
      Number of AO shells:              22
      Number of SO shells:              22
      Number of primitives:            106
      Number of atomic orbitals:        58
      Number of basis functions:        54

      Number of irreps:                  4
      Integral cutoff                 1.00e-12
      Number of functions per irrep: [  26    4   12   12 ]

 OEINTS: Overlap, kinetic, potential, dipole, and quadrupole integrals
         stored in file 35.

      Computing two-electron integrals...done
      Computed 210894 non-zero two-electron integrals.
        Stored in file 33.


*** tstart() called on cs042.hpc.nyu.edu
*** at Tue Nov 15 15:32:52 2022


	Wfn Parameters:
	--------------------
	Wavefunction         = CCSD_T
	Number of irreps     = 4
	Number of MOs        = 54
	Number of active MOs = 49
	AO-Basis             = NONE
	Semicanonical        = false
	Reference            = RHF
	Print Level          = 1

	IRREP	# MOs	# FZDC	# DOCC	# SOCC	# VIRT	# FZVR
	-----	-----	------	------	------	------	------
	 A1	   26	    3	    2	    0	    21	    0
	 A2	   4	    0	    0	    0	    4	    0
	 B1	   12	    1	    1	    0	    10	    0
	 B2	   12	    1	    1	    0	    10	    0
	Transforming integrals...
	IWL integrals will be deleted.
	(OO|OO)...
	Presorting SO-basis two-electron integrals.
	Sorting File: SO Ints (nn|nn) nbuckets = 1
	Constructing frozen core operators
	Starting first half-transformation.
	Sorting half-transformed integrals.
	First half integral transformation complete.
	Starting second half-transformation.
	Two-electron integral transformation complete.
	(OO|OV)...
	Starting second half-transformation.
	Two-electron integral transformation complete.
	(OO|VV)...
	Starting second half-transformation.
	Two-electron integral transformation complete.
	(OV|OO)...
	Starting first half-transformation.
	Sorting half-transformed integrals.
	First half integral transformation complete.
	Starting second half-transformation.
	Two-electron integral transformation complete.
	(OV|OV)...
	Starting second half-transformation.
	Two-electron integral transformation complete.
	(OV|VV)...
	Starting second half-transformation.
	Two-electron integral transformation complete.
	(VV|OO)...
	Starting first half-transformation.
	Sorting half-transformed integrals.
	First half integral transformation complete.
	Starting second half-transformation.
	Two-electron integral transformation complete.
	(VV|OV)...
	Starting second half-transformation.
	Two-electron integral transformation complete.
	(VV|VV)...
	Starting second half-transformation.
	Two-electron integral transformation complete.
	Frozen core energy     =   -505.93058532787921

	Size of irrep 0 of <ab|cd> integrals:      0.432 (MW) /      3.453 (MB)
	Size of irrep 1 of <ab|cd> integrals:      0.135 (MW) /      1.083 (MB)
	Size of irrep 2 of <ab|cd> integrals:      0.250 (MW) /      2.000 (MB)
	Size of irrep 3 of <ab|cd> integrals:      0.250 (MW) /      2.000 (MB)
	Total:                                     1.067 (MW) /      8.537 (MB)

	Size of irrep 0 of <ia|bc> integrals:      0.041 (MW) /      0.326 (MB)
	Size of irrep 1 of <ia|bc> integrals:      0.010 (MW) /      0.082 (MB)
	Size of irrep 2 of <ia|bc> integrals:      0.022 (MW) /      0.180 (MB)
	Size of irrep 3 of <ia|bc> integrals:      0.022 (MW) /      0.180 (MB)
	Total:                                     0.096 (MW) /      0.768 (MB)

	Size of irrep 0 of tijab amplitudes:       0.004 (MW) /      0.032 (MB)
	Size of irrep 1 of tijab amplitudes:       0.001 (MW) /      0.006 (MB)
[...]
              'schema_version': 2,
              'symbols': ['Ar', 'Ar'],
              'validated': True},
 'protocols': {'stdout': True},
 'provenance': {'creator': 'QCElemental', 'routine': 'qcelemental.models.results', 'version': 'v0.25.1'},
 'schema_name': 'qcschema_input',
 'schema_version': 1}
--------------------------------------------------------------------------

Scratch directory: /tmp/

*** tstart() called on cs042.hpc.nyu.edu
*** at Tue Nov 15 16:17:51 2022

   => Loading Basis Set <=

    Name: AUG-CC-PVDZ
    Role: ORBITAL
    Keyword: BASIS
    atoms 1-2 entry AR         line   834 file /ext3/miniconda3/share/psi4/basis/aug-cc-pvdz.gbs 


         ---------------------------------------------------------
                                   SCF
               by Justin Turney, Rob Parrish, Andy Simmonett
                          and Daniel G. A. Smith
                              RHF Reference
                        1 Threads,    572 MiB Core
         ---------------------------------------------------------

  ==> Geometry <==

    Molecular point group: d2h
    Full point group: D_inf_h

    Geometry (in Bohr), charge = 0, multiplicity = 1:

       Center              X                  Y                   Z               Mass       
    ------------   -----------------  -----------------  -----------------  -----------------
         AR           0.000000000000     0.000000000000    -4.818801619917    39.962383123700
         AR           0.000000000000     0.000000000000     4.818801619917    39.962383123700

  Running in d2h symmetry.

  Rotational constants: A = ************  B =      0.03244  C =      0.03244 [cm^-1]
  Rotational constants: A = ************  B =    972.42354  C =    972.42354 [MHz]
  Nuclear repulsion =   33.618316913152924

  Charge       = 0
  Multiplicity = 1
  Electrons    = 36
  Nalpha       = 18
  Nbeta        = 18

  ==> Algorithm <==

  SCF Algorithm Type is DF.
  DIIS enabled.
  MOM disabled.
  Fractional occupation disabled.
  Guess Type is SAD.
  Energy threshold   = 1.00e-08
  Density threshold  = 1.00e-08
  Integral threshold = 1.00e-12

  ==> Primary Basis <==

  Basis Set: AUG-CC-PVDZ
    Blend: AUG-CC-PVDZ
    Number of shells: 22
    Number of basis functions: 54
    Number of Cartesian functions: 58
    Spherical Harmonics?: true
    Max angular momentum: 2

   => Loading Basis Set <=

    Name: (AUG-CC-PVDZ AUX)
    Role: JKFIT
    Keyword: DF_BASIS_SCF
    atoms 1-2 entry AR         line   854 file /ext3/miniconda3/share/psi4/basis/aug-cc-pvdz-jkfit.gbs 

  ==> Integral Setup <==

  ==> DiskDFJK: Density-Fitted J/K Matrices <==

    J tasked:                  Yes
    K tasked:                  Yes
    wK tasked:                  No
    OpenMP threads:              1
    Integrals threads:           1
    Memory [MiB]:              429
    Algorithm:                Core
    Integral Cache:           NONE
    Schwarz Cutoff:          1E-12
    Fitting Condition:       1E-10

   => Auxiliary Basis Set <=

  Basis Set: (AUG-CC-PVDZ AUX)
    Blend: AUG-CC-PVDZ-JKFIT
    Number of shells: 80
    Number of basis functions: 256
    Number of Cartesian functions: 300
    Spherical Harmonics?: true
    Max angular momentum: 3

  Minimum eigenvalue in the overlap matrix is 4.4678338608E-02.
  Reciprocal condition number of the overlap matrix is 1.9651621822E-02.
    Using symmetric orthogonalization.

  ==> Pre-Iterations <==

  SCF Guess: Superposition of Atomic Densities via on-the-fly atomic UHF (no occupation information).

   -------------------------
    Irrep   Nso     Nmo    
   -------------------------
     Ag        13      13 
     B1g        2       2 
     B2g        6       6 
     B3g        6       6 
     Au         2       2 
     B1u       13      13 
     B2u        6       6 
     B3u        6       6 
   -------------------------
    Total      54      54
   -------------------------

  ==> Iterations <==

                           Total Energy        Delta E     RMS |[F,P]|

   @DF-RHF iter SAD: -1053.58476503531233   -1.05358e+03   0.00000e+00 
   @DF-RHF iter   1: -1053.60146810928404   -1.67031e-02   1.45205e-03 DIIS/ADIIS
   @DF-RHF iter   2: -1053.60193924745386   -4.71138e-04   3.85661e-04 DIIS/ADIIS
   @DF-RHF iter   3: -1053.60196882713831   -2.95797e-05   8.95018e-06 DIIS
   @DF-RHF iter   4: -1053.60196885256664   -2.54283e-08   1.27885e-06 DIIS
   @DF-RHF iter   5: -1053.60196885349501   -9.28367e-10   3.24629e-08 DIIS
   @DF-RHF iter   6: -1053.60196885349592   -9.09495e-13   6.72445e-09 DIIS
  Energy and wave function converged.


  ==> Post-Iterations <==

    Orbital Energies [Eh]
    ---------------------

    Doubly Occupied:                                                      

       1B1u -118.610537     1Ag  -118.610536     2B1u  -12.322752  
       2Ag   -12.322746     3Ag    -9.571319     3B1u   -9.571319  
       1B2g   -9.571316     1B3g   -9.571316     1B3u   -9.571316  
       1B2u   -9.571316     4Ag    -1.278891     4B1u   -1.278852  
       5Ag    -0.592843     2B2u   -0.592296     2B3u   -0.592296  
       2B3g   -0.592179     2B2g   -0.592179     5B1u   -0.591647  

    Virtual:                                                              

       6Ag     0.126405     3B3u    0.137822     3B2u    0.137822  
       6B1u    0.147166     3B2g    0.164892     3B3g    0.164892  
       7Ag     0.165696     7B1u    0.236883     8Ag     0.540241  
       4B2u    0.541122     4B3u    0.541122     9Ag     0.541401  
       1B1g    0.541401     8B1u    0.541460     1Au     0.541460  
       4B3g    0.542314     4B2g    0.542314     9B1u    0.551555  
       5B3u    0.962448     5B2u    0.962448     5B2g    0.979108  
       5B3g    0.979108    10B1u    0.979920    10Ag     0.993217  
      11Ag     1.309185    11B1u    1.368754    12Ag     1.609359  
       6B2u    1.610001     6B3u    1.610001     2B1g    1.610280  
      13Ag     1.610280     2Au     1.610351    12B1u    1.610351  
       6B3g    1.611534     6B2g    1.611534    13B1u    1.627918  

    Final Occupation by Irrep:
             Ag   B1g   B2g   B3g    Au   B1u   B2u   B3u 
    DOCC [     5,    0,    2,    2,    0,    5,    2,    2 ]
    NA   [     5,    0,    2,    2,    0,    5,    2,    2 ]
    NB   [     5,    0,    2,    2,    0,    5,    2,    2 ]

  @DF-RHF Final Energy: -1053.60196885349592

   => Energetics <=

    Nuclear Repulsion Energy =             33.6183169131529240
    One-Electron Energy =               -1523.6292568186145218
    Two-Electron Energy =                 436.4089710519657501
    Total Energy =                      -1053.6019688534956913

Computation Completed


Properties will be evaluated at   0.000000,   0.000000,   0.000000 [a0]

Properties computed using the SCF density matrix


 Multipole Moments:

 ------------------------------------------------------------------------------------
     Multipole            Electronic (a.u.)      Nuclear  (a.u.)        Total (a.u.)
 ------------------------------------------------------------------------------------

 L = 1.  Multiply by 2.5417464519 to convert [e a0] to [Debye]
 Dipole X            :          0.0000000            0.0000000            0.0000000
 Dipole Y            :          0.0000000            0.0000000            0.0000000
 Dipole Z            :          0.0000000           -0.0000000           -0.0000000
 Magnitude           :                                                    0.0000000

 ------------------------------------------------------------------------------------

*** tstop() called on cs042.hpc.nyu.edu at Tue Nov 15 16:17:51 2022
Module time:
	user time   =       0.46 seconds =       0.01 minutes
	system time =       0.00 seconds =       0.00 minutes
	total time  =          0 seconds =       0.00 minutes
Total time:
	user time   =     437.88 seconds =       7.30 minutes
	system time =      44.62 seconds =       0.74 minutes
	total time  =       5884 seconds =      98.07 minutes
 MINTS: Wrapper to libmints.
   by Justin Turney

   Calculation information:
      Number of threads:                 1
      Number of atoms:                   2
      Number of AO shells:              22
      Number of SO shells:              11
      Number of primitives:            106
      Number of atomic orbitals:        58
      Number of basis functions:        54

      Number of irreps:                  8
      Integral cutoff                 1.00e-12
      Number of functions per irrep: [  13    2    6    6    2   13    6    6 ]

 OEINTS: Overlap, kinetic, potential, dipole, and quadrupole integrals
         stored in file 35.

      Computing two-electron integrals...done
      Computed 134055 non-zero two-electron integrals.
        Stored in file 33.


*** tstart() called on cs042.hpc.nyu.edu
*** at Tue Nov 15 16:17:52 2022


	Wfn Parameters:
	--------------------
	Wavefunction         = CCSD_T
	Number of irreps     = 8
	Number of MOs        = 54
	Number of active MOs = 44
	AO-Basis             = NONE
	Semicanonical        = false
	Reference            = RHF
	Print Level          = 1

	IRREP	# MOs	# FZDC	# DOCC	# SOCC	# VIRT	# FZVR
	-----	-----	------	------	------	------	------
	 Ag	   13	    3	    2	    0	    8	    0
	 B1g	   2	    0	    0	    0	    2	    0
	 B2g	   6	    1	    1	    0	    4	    0
	 B3g	   6	    1	    1	    0	    4	    0
	 Au	   2	    0	    0	    0	    2	    0
	 B1u	   13	    3	    2	    0	    8	    0
	 B2u	   6	    1	    1	    0	    4	    0
	 B3u	   6	    1	    1	    0	    4	    0
	Transforming integrals...
	IWL integrals will be deleted.
	(OO|OO)...
	Presorting SO-basis two-electron integrals.
	Sorting File: SO Ints (nn|nn) nbuckets = 1
	Constructing frozen core operators
	Starting first half-transformation.
	Sorting half-transformed integrals.
	First half integral transformation complete.
	Starting second half-transformation.
	Two-electron integral transformation complete.
	(OO|OV)...
	Starting second half-transformation.
	Two-electron integral transformation complete.
	(OO|VV)...
	Starting second half-transformation.
	Two-electron integral transformation complete.
	(OV|OO)...
	Starting first half-transformation.
	Sorting half-transformed integrals.
	First half integral transformation complete.
	Starting second half-transformation.
	Two-electron integral transformation complete.
	(OV|OV)...
	Starting second half-transformation.
	Two-electron integral transformation complete.
	(OV|VV)...
	Starting second half-transformation.
	Two-electron integral transformation complete.
	(VV|OO)...
	Starting first half-transformation.
	Sorting half-transformed integrals.
	First half integral transformation complete.
	Starting second half-transformation.
	Two-electron integral transformation complete.
	(VV|OV)...
	Starting second half-transformation.
	Two-electron integral transformation complete.
	(VV|VV)...
	Starting second half-transformation.
	Two-electron integral transformation complete.
	Frozen core energy     =  -1038.83882690176733

	Size of irrep 0 of <ab|cd> integrals:      0.040 (MW) /      0.320 (MB)
	Size of irrep 1 of <ab|cd> integrals:      0.016 (MW) /      0.131 (MB)
	Size of irrep 2 of <ab|cd> integrals:      0.026 (MW) /      0.205 (MB)
	Size of irrep 3 of <ab|cd> integrals:      0.026 (MW) /      0.205 (MB)
	Size of irrep 4 of <ab|cd> integrals:      0.016 (MW) /      0.131 (MB)
	Size of irrep 5 of <ab|cd> integrals:      0.040 (MW) /      0.320 (MB)
	Size of irrep 6 of <ab|cd> integrals:      0.026 (MW) /      0.205 (MB)
	Size of irrep 7 of <ab|cd> integrals:      0.026 (MW) /      0.205 (MB)
	Total:                                     0.215 (MW) /      1.721 (MB)

	Size of irrep 0 of <ia|bc> integrals:      0.010 (MW) /      0.077 (MB)
	Size of irrep 1 of <ia|bc> integrals:      0.003 (MW) /      0.025 (MB)
	Size of irrep 2 of <ia|bc> integrals:      0.006 (MW) /      0.046 (MB)
	Size of irrep 3 of <ia|bc> integrals:      0.006 (MW) /      0.046 (MB)
	Size of irrep 4 of <ia|bc> integrals:      0.003 (MW) /      0.025 (MB)
	Size of irrep 5 of <ia|bc> integrals:      0.010 (MW) /      0.077 (MB)
	Size of irrep 6 of <ia|bc> integrals:      0.006 (MW) /      0.046 (MB)
	Size of irrep 7 of <ia|bc> integrals:      0.006 (MW) /      0.046 (MB)
	Total:                                     0.048 (MW) /      0.387 (MB)

	Size of irrep 0 of tijab amplitudes:       0.002 (MW) /      0.019 (MB)
	Size of irrep 1 of tijab amplitudes:       0.001 (MW) /      0.004 (MB)
	Size of irrep 2 of tijab amplitudes:       0.001 (MW) /      0.010 (MB)
	Size of irrep 3 of tijab amplitudes:       0.001 (MW) /      0.010 (MB)
	Size of irrep 4 of tijab amplitudes:       0.001 (MW) /      0.004 (MB)
	Size of irrep 5 of tijab amplitudes:       0.002 (MW) /      0.019 (MB)
	Size of irrep 6 of tijab amplitudes:       0.001 (MW) /      0.010 (MB)
	Size of irrep 7 of tijab amplitudes:       0.001 (MW) /      0.010 (MB)
	Total:                                     0.011 (MW) /      0.088 (MB)

	Nuclear Rep. energy          =     33.61831691315292
	SCF energy                   =  -1053.60196885349592
	One-electron energy          =    -84.54058403024409
	Two-electron energy          =     36.15913709319523
	Reference energy             =  -1053.60195692566322

*** tstop() called on cs042.hpc.nyu.edu at Tue Nov 15 16:17:52 2022
Module time:
	user time   =       0.07 seconds =       0.00 minutes
	system time =       0.03 seconds =       0.00 minutes
	total time  =          0 seconds =       0.00 minutes
Total time:
	user time   =     438.88 seconds =       7.31 minutes
	system time =      44.66 seconds =       0.74 minutes
	total time  =       5885 seconds =      98.08 minutes
            **************************
            *                        *
            *        CCENERGY        *
            *                        *
            **************************

    Nuclear Rep. energy (wfn)     =   33.618316913152924
    SCF energy          (wfn)     = -1053.601968853495919
    Reference energy    (file100) = -1053.601956925663217

    Input parameters:
    -----------------
    Wave function   =     CCSD_T
    Reference wfn   =     RHF
    Brueckner       =     No
    Memory (Mbytes) =     600.0
    Maxiter         =     50
    R_Convergence   =     1.0e-07
    E_Convergence   =     1.0e-06
    Restart         =     Yes
    DIIS            =     Yes
    AO Basis        =     NONE
    ABCD            =     NEW
    Cache Level     =     2
    Cache Type      =     LOW
    Print Level     =     1
    Num. of threads =     1
    # Amps to Print =     10
    Print MP2 Amps? =     No
    Analyze T2 Amps =     No
    Print Pair Ener =     No
    Local CC        =     No
    SCS-MP2         =     False
    SCSN-MP2        =     False
    SCS-CCSD        =     False

MP2 correlation energy -0.3087882432030998
                Solving CC Amplitude Equations
                ------------------------------
  Iter             Energy              RMS        T1Diag      D1Diag    New D1Diag    D2Diag
  ----     ---------------------    ---------   ----------  ----------  ----------   --------
     0        -0.308788243203100    0.000e+00    0.000000    0.000000    0.000000    0.104973
     1        -0.328763807349495    3.202e-02    0.002865    0.004921    0.004921    0.114077
     2        -0.332272954836413    8.161e-03    0.003421    0.005782    0.005782    0.116694
     3        -0.332492374605709    1.538e-03    0.003685    0.006269    0.006269    0.117019
     4        -0.332495605386512    3.149e-04    0.003726    0.006338    0.006338    0.117071
     5        -0.332489819084171    6.263e-05    0.003733    0.006354    0.006354    0.117067
     6        -0.332489848391148    1.129e-05    0.003734    0.006356    0.006356    0.117067
     7        -0.332490003296783    3.311e-06    0.003734    0.006356    0.006356    0.117066
     8        -0.332490019766062    7.876e-07    0.003734    0.006356    0.006356    0.117066
     9        -0.332490016255008    1.972e-07    0.003734    0.006356    0.006356    0.117066
    10        -0.332490017314410    6.182e-08    0.003734    0.006356    0.006356    0.117066

    Iterations converged.


    Largest TIA Amplitudes:
              6  28         0.0054223834
              7  32         0.0054223834
              2  10         0.0052775336
              3  14         0.0052775336
              1   0        -0.0046617812
              1   1         0.0037313277
              5  20        -0.0035187820
              5  21         0.0032963536
              0   5         0.0025138379
              4  25         0.0025111900

    Largest TIjAb Amplitudes:
      5   5  23  23        -0.0188798131
      1   1   2   2        -0.0184954193
      1   5   2  23        -0.0184638605
      5   1  23   2        -0.0184638605
      1   1  23  23        -0.0178804759
      5   5   2   2        -0.0176399825
      1   5  23   2        -0.0175338110
      5   1   2  23        -0.0175338110
      2   2  11  11        -0.0143097767
      3   3  15  15        -0.0143097767

    SCF energy       (wfn)                    = -1053.601968853495919
    Reference energy (file100)                = -1053.601956925663217

    Opposite-spin MP2 correlation energy      =   -0.224067636196716
    Same-spin MP2 correlation energy          =   -0.084720607006384
    Singles MP2 correlation energy            =   -0.000000000000000
    MP2 correlation energy                    =   -0.308788243203100
      * MP2 total energy                      = -1053.910745168866242

    Opposite-spin CCSD correlation energy     =   -0.250606407191459
    Same-spin CCSD correlation energy         =   -0.081883610122951
    Singles CCSD correlation energy           =    0.000000000000000
    CCSD correlation energy                   =   -0.332490017314410
      * CCSD total energy                     = -1053.934446942977729

            **************************
            *                        *
            *        CCTRIPLES       *
            *                        *
            **************************


    Wave function   =    CCSD_T
    Reference wfn   =      RHF

    Nuclear Rep. energy (wfn)                =   33.618316913152924
    SCF energy          (wfn)                = -1053.601968853495919
    Reference energy    (file100)            = -1053.601956925663217
    CCSD energy         (file100)            =   -0.332490017314410
    Total CCSD energy   (file100)            = -1053.934446942977729

    Number of ijk index combinations:              120
    Memory available in words               :        75000000
    Approx. words needed per explicit thread:            2048
    Number of threads for explicit ijk threading:    1

    MKL num_threads set to 1 for explicit threading.

    (T) energy                                =   -0.005062143511293
      * CCSD(T) total energy                  = -1053.939509086488897


    Psi4 stopped on: Tuesday, 15 November 2022 04:17PM
    Psi4 wall time for execution: 0:00:01.87


  //>>>>>>>>>>>>>>>>>>>>>>>>>>>>>>>>>>>//
  //          ManyBody Results         //
  //<<<<<<<<<<<<<<<<<<<<<<<<<<<<<<<<<<<//


   ==> N-Body: Counterpoise Corrected (CP) energies <==

        n-Body     Total Energy            Interaction Energy                          N-body Contribution to Interaction Energy
                   [Eh]                    [Eh]                  [kcal/mol]            [Eh]                  [kcal/mol]
             1  N/A                         0.000000000000        0.000000000000        0.000000000000        0.000000000000
  FULL/RTN   2  N/A                        -0.000079758280       -0.050049076443       -0.000079758280       -0.050049076443


Scratch directory: /tmp/

  //>>>>>>>>>>>>>>>>>>>>>>>>>>>>>>>>>>>>>//
  // ManyBody Setup: N-Body Levels [1, 2]//
  //<<<<<<<<<<<<<<<<<<<<<<<<<<<<<<<<<<<<<//

        Number of 1-body computations:     2
        Number of 2-body computations:     1
