
Host: cs042.hpc.nyu.edu

Timers On : Tue Nov 15 15:14:00 2022
Timers Off: Tue Nov 15 15:14:00 2022

Wall Time:        0.36 seconds

                                                       Time (seconds)
Module                                       User      System        Wall        Calls

--------------------------------------------------------------------------------------

**************************************************************************************
