ITEM: TIMESTEP
100000
ITEM: NUMBER OF ATOMS
2048
ITEM: BOX BOUNDS pp pp pp
0.0000000000000000e+00 1.2121155906634332e+01
0.0000000000000000e+00 1.2121155906634332e+01
0.0000000000000000e+00 1.2121155906634332e+01
ITEM: ATOMS id type xs ys zs
8 1 0.0388055 0.0306129 0.0488947
973 1 0.122878 0.0310481 0.0414174
384 1 0.188202 0.0265326 0.00160794
1327 1 0.253537 0.046624 0.0531999
1974 1 0.372033 0.0294251 0.0512187
1298 1 0.466627 0.0224438 0.0126728
2005 1 0.602126 0.047626 0.0413855
847 1 0.716123 0.0205872 0.00493831
968 1 0.89034 0.00507821 0.0549436
657 1 0.965134 0.0242631 0.00651609
462 1 0.0767566 0.0935359 0.0242402
402 1 0.153816 0.103428 0.0119443
11 1 0.301146 0.104627 0.0204536
807 1 0.417305 0.0872579 0.0209047
1509 1 0.537612 0.09215 0.0111502
115 1 0.657107 0.110254 0.00652759
1406 1 0.903196 0.0784808 0.0111617
551 1 0.994614 0.0974374 0.00544556
822 1 0.0466672 0.16357 0.0466649
1625 1 0.367124 0.161739 0.0326913
173 1 0.580302 0.152915 0.040826
1244 1 0.82061 0.122925 0.00516229
1397 1 0.880086 0.158337 0.0549432
155 1 0.12082 0.180908 0.014061
485 1 0.648088 0.198029 0.0387028
918 1 0.766732 0.180566 0.0249056
786 1 0.0678605 0.238182 0.0116085
977 1 0.248452 0.233101 0.0484234
652 1 0.357489 0.239116 0.0178938
1383 1 0.43047 0.224591 0.0523639
855 1 0.573536 0.245072 0.0276173
1987 1 0.715126 0.239281 0.0182248
1263 1 0.785425 0.274229 0.0463585
318 1 0.858217 0.245386 0.0504926
1739 1 0.925929 0.232126 0.0111596
1172 1 0.997528 0.236297 0.0530835
437 1 0.0444037 0.329665 0.0424828
1755 1 0.124183 0.301785 0.0214563
1711 1 0.212384 0.306119 0.0068486
615 1 0.28905 0.295686 0.0249169
1689 1 0.447708 0.313988 0.0271811
510 1 0.557614 0.322169 0.00773418
288 1 0.636877 0.327992 0.0521709
2048 1 0.84993 0.324292 0.00600445
1151 1 0.265181 0.366859 0.00086208
1125 1 0.344371 0.37878 0.0232947
897 1 0.498886 0.377069 0.0230796
396 1 0.736936 0.342035 0.0461533
362 1 0.796122 0.380372 0.0179292
1325 1 0.935363 0.37618 0.0435113
1106 1 0.00328571 0.408674 0.0104693
205 1 0.119637 0.394239 0.0451697
1769 1 0.195689 0.413797 0.0495301
1236 1 0.284873 0.430952 0.0434143
1954 1 0.421431 0.39296 0.004892
112 1 0.570864 0.415842 0.0475141
1722 1 0.650985 0.418304 0.0479103
782 1 0.871031 0.412864 6.07261e-05
691 1 0.0699781 0.45626 0.0228175
1533 1 0.234324 0.486151 0.0403008
648 1 0.369081 0.453222 0.0227915
1005 1 0.462939 0.459845 0.0354876
1401 1 0.852492 0.499968 0.0180352
887 1 0.940071 0.467508 0.0405583
13 1 0.0376167 0.545411 0.0350667
1826 1 0.12483 0.531065 0.0256901
1945 1 0.50867 0.550155 0.0133018
1023 1 0.591844 0.52924 0.0186736
12 1 0.749244 0.501956 0.0215319
1643 1 0.0858728 0.605357 0.0163682
1510 1 0.171101 0.602755 0.0376585
921 1 0.248673 0.55934 0.0402896
1447 1 0.35657 0.600821 0.0502416
1844 1 0.438738 0.587455 0.0175999
50 1 0.684194 0.609603 0.0500101
1137 1 0.882633 0.573776 0.0150198
1015 1 0.027883 0.666027 0.00716164
1970 1 0.243321 0.662568 0.0396536
388 1 0.447503 0.666547 0.000142434
763 1 0.529426 0.62394 0.045146
190 1 0.605954 0.615887 0.0299582
337 1 0.73832 0.66597 0.0419241
1592 1 0.817176 0.620044 0.0294734
1842 1 0.099454 0.685264 0.043304
870 1 0.184517 0.71519 0.0224759
616 1 0.578806 0.690474 0.0372335
966 1 0.660834 0.686656 0.0448482
45 1 0.899479 0.721273 0.0224642
88 1 0.276001 0.728158 0.00713838
120 1 0.707578 0.771046 0.00499003
781 1 0.775118 0.735659 0.0267501
1635 1 0.117381 0.784972 0.0112741
1353 1 0.187817 0.792874 0.0540306
1741 1 0.386806 0.815535 0.0223249
436 1 0.46773 0.778873 0.00824606
1853 1 0.645403 0.81582 0.0278553
178 1 0.851014 0.791764 0.037917
133 1 0.99143 0.795515 0.0494633
1487 1 0.137493 0.864653 0.040865
902 1 0.21204 0.861344 0.0131578
454 1 0.294577 0.875048 0.0150337
1610 1 0.447941 0.864267 0.0218537
139 1 0.51837 0.835202 0.047855
490 1 0.914045 0.844689 0.0481981
1885 1 0.0605281 0.90371 0.0348065
477 1 0.373256 0.900769 0.0223707
1085 1 0.635018 0.899886 0.0397048
930 1 0.713468 0.934753 0.00191204
1874 1 0.840073 0.931445 0.0546868
287 1 0.898696 0.930627 0.00236987
829 1 0.00090487 0.961408 0.0412502
661 1 0.126372 0.94785 0.03331
859 1 0.252127 0.969647 0.0306509
946 1 0.324199 0.988465 0.00115003
1785 1 0.419681 0.960528 0.0500151
588 1 0.509761 0.952111 0.0198217
1207 1 0.619948 0.986221 0.00390503
294 1 0.535798 0.0104673 0.0675592
1126 1 0.730795 0.0156467 0.0985891
1724 1 0.805423 0.00547835 0.0698526
1030 1 0.97174 0.0164929 0.0856744
372 1 0.00742164 0.0919546 0.106369
1460 1 0.170457 0.0793214 0.0935091
386 1 0.360706 0.0995423 0.0882511
1953 1 0.484037 0.086636 0.069608
698 1 0.67279 0.0672148 0.0817516
1341 1 0.761655 0.0804442 0.0616982
3 1 0.840088 0.0817662 0.080508
1412 1 0.922255 0.0862107 0.0867833
869 1 0.248891 0.123559 0.0880327
1248 1 0.425646 0.15096 0.0811391
1153 1 0.55269 0.112322 0.100523
1156 1 0.501943 0.166164 0.0607173
1009 1 0.63038 0.149291 0.10145
1600 1 0.707876 0.140725 0.0583751
1107 1 0.803739 0.151673 0.098676
907 1 0.967877 0.155147 0.0670829
228 1 0.108717 0.169195 0.0998366
1790 1 0.18805 0.171285 0.0604389
134 1 0.300515 0.176824 0.0620436
1320 1 0.565711 0.195237 0.106109
936 1 0.727675 0.213109 0.0911286
734 1 0.921957 0.218115 0.095682
1609 1 0.0847785 0.247046 0.0914899
1961 1 0.173814 0.247281 0.0617219
856 1 0.316007 0.252758 0.0942633
2042 1 0.506233 0.24737 0.0660708
1661 1 0.382788 0.313202 0.0714663
1796 1 0.449403 0.297049 0.106108
1832 1 0.578392 0.279612 0.101919
1816 1 0.697847 0.289261 0.0902284
1657 1 0.855814 0.322763 0.0876174
558 1 0.928132 0.288676 0.0641719
128 1 0.9908 0.327265 0.101185
421 1 0.0996246 0.333765 0.103123
1408 1 0.177609 0.339349 0.0744772
1904 1 0.253166 0.346556 0.0788025
565 1 0.535065 0.346279 0.0905666
1766 1 0.78778 0.366801 0.0963672
1307 1 0.0456941 0.403743 0.0950204
1847 1 0.326999 0.391692 0.101625
744 1 0.464378 0.404997 0.0952324
1894 1 0.732428 0.430267 0.0722672
2032 1 0.874984 0.404101 0.0830588
1390 1 0.964048 0.422338 0.106575
1116 1 0.0186349 0.476279 0.0794043
1743 1 0.133573 0.467571 0.0724668
699 1 0.224302 0.461807 0.11109
537 1 0.400654 0.452707 0.0984657
514 1 0.530317 0.496789 0.078295
1082 1 0.606803 0.471553 0.0939228
217 1 0.749446 0.496903 0.10724
257 1 0.810866 0.450787 0.0597122
1129 1 0.878124 0.488298 0.0908711
312 1 0.0931898 0.53158 0.100693
1059 1 0.176546 0.539098 0.0879854
2010 1 0.32514 0.506796 0.060852
70 1 0.408526 0.524713 0.0587874
142 1 0.679295 0.500514 0.0725245
2045 1 0.811517 0.538514 0.076693
1195 1 0.942741 0.547866 0.0572662
1546 1 0.0587205 0.607183 0.0884797
1797 1 0.221717 0.607951 0.10129
740 1 0.48074 0.573938 0.0846897
453 1 0.575106 0.565883 0.0928685
957 1 0.754594 0.593851 0.082906
1416 1 0.886595 0.566398 0.110374
241 1 0.419251 0.659211 0.0993582
607 1 0.611084 0.639925 0.10964
1978 1 0.829517 0.627115 0.109504
1744 1 0.90777 0.635046 0.0684685
481 1 0.983605 0.620851 0.0601321
1133 1 0.178022 0.685948 0.10345
894 1 0.340865 0.677891 0.0619171
1262 1 0.487851 0.689944 0.0650984
1745 1 0.832144 0.694035 0.0642801
1176 1 0.959888 0.699813 0.0706258
1250 1 0.0402186 0.729433 0.0771059
989 1 0.119594 0.747663 0.0872602
1716 1 0.236426 0.737734 0.0851343
1031 1 0.337 0.766757 0.0699623
776 1 0.409298 0.73545 0.0634488
1957 1 0.489668 0.767706 0.0836568
1562 1 0.575188 0.768768 0.0642716
1871 1 0.625693 0.727353 0.109081
1475 1 0.692848 0.761072 0.0873468
854 1 0.810453 0.763818 0.0970924
183 1 0.889281 0.748477 0.0973576
1561 1 0.0789242 0.815221 0.0771132
901 1 0.259309 0.821995 0.0829159
1499 1 0.430176 0.82133 0.089967
371 1 0.359395 0.865323 0.102847
1921 1 0.699089 0.864707 0.0720321
1001 1 0.793676 0.840178 0.0628543
1920 1 0.989675 0.873186 0.0653842
1621 1 0.163611 0.928765 0.103644
841 1 0.235442 0.902013 0.0807953
2047 1 0.31925 0.942429 0.0728366
2046 1 0.486543 0.902187 0.0841457
182 1 0.564201 0.919663 0.0805435
953 1 0.752775 0.926581 0.0716816
1056 1 0.928956 0.916739 0.0932059
1083 1 0.0711179 0.967532 0.0873014
171 1 0.191864 0.996429 0.0765394
1514 1 0.458813 0.988783 0.109839
358 1 0.672946 0.959638 0.0705592
1317 1 0.0329269 0.0227984 0.138498
1445 1 0.126565 0.00393714 0.132974
991 1 0.307074 0.040452 0.112651
347 1 0.514714 0.0503178 0.131611
1282 1 0.62991 0.020217 0.130075
2004 1 0.792084 0.0530396 0.162038
1417 1 0.855959 0.0200722 0.125655
1799 1 0.093005 0.0787318 0.117582
823 1 0.229299 0.0591991 0.137801
342 1 0.28364 0.107892 0.159231
971 1 0.426674 0.0630663 0.118995
600 1 0.62828 0.106011 0.165346
1735 1 0.193155 0.132531 0.143559
819 1 0.40846 0.14986 0.155445
1245 1 0.481817 0.123743 0.147621
258 1 0.718544 0.118742 0.135665
1286 1 0.878131 0.152078 0.14033
1060 1 0.954991 0.145089 0.150267
1507 1 0.0319852 0.166748 0.126539
197 1 0.174352 0.211858 0.165138
1596 1 0.240948 0.194112 0.11904
1042 1 0.32729 0.178593 0.138052
1856 1 0.390463 0.21292 0.116525
1488 1 0.468546 0.219157 0.128823
990 1 0.144414 0.275297 0.127751
445 1 0.241554 0.272473 0.124636
395 1 0.374596 0.275907 0.164576
1540 1 0.515972 0.277136 0.151478
286 1 0.648007 0.229373 0.111479
1243 1 0.696375 0.26104 0.163563
697 1 0.815703 0.226841 0.113238
598 1 0.992456 0.233791 0.133045
1321 1 0.302065 0.327933 0.142807
1804 1 0.6479 0.319919 0.153503
1372 1 0.779502 0.297434 0.126905
1709 1 0.896022 0.27779 0.140531
1044 1 0.209973 0.342029 0.14823
1255 1 0.397761 0.356782 0.136393
1265 1 0.498883 0.362929 0.156969
229 1 0.697832 0.37152 0.11128
1305 1 0.911845 0.358136 0.158654
554 1 0.141919 0.401892 0.121453
1384 1 0.260541 0.403953 0.154276
1821 1 0.457954 0.436324 0.166316
1536 1 0.536813 0.43158 0.117272
1591 1 0.607755 0.389452 0.123718
234 1 0.713584 0.436028 0.152752
1110 1 0.803936 0.442271 0.139738
1139 1 0.895987 0.440847 0.153324
906 1 0.01414 0.459071 0.159007
1054 1 0.159334 0.489461 0.150385
1347 1 0.325222 0.469232 0.133949
1131 1 0.650949 0.494765 0.157322
949 1 0.953359 0.496951 0.116996
204 1 0.00847528 0.552285 0.116847
1940 1 0.25673 0.535393 0.113855
1470 1 0.465987 0.504399 0.123053
123 1 0.569869 0.50482 0.156774
925 1 0.129742 0.592543 0.129263
796 1 0.301927 0.598447 0.122441
411 1 0.409959 0.569594 0.129674
1381 1 0.667542 0.577626 0.11936
535 1 0.731819 0.610521 0.160711
1808 1 0.799853 0.569525 0.14993
456 1 0.953861 0.607563 0.142153
1776 1 0.0114406 0.661074 0.12285
291 1 0.186041 0.638486 0.163241
1092 1 0.360839 0.634545 0.158166
1361 1 0.50606 0.638717 0.12291
881 1 0.0905348 0.673283 0.127238
722 1 0.281573 0.675194 0.11388
290 1 0.554051 0.707014 0.115835
1927 1 0.692339 0.679121 0.118652
1088 1 0.769714 0.67411 0.126543
1433 1 0.842477 0.70903 0.149714
1764 1 0.932527 0.698589 0.155702
211 1 0.187487 0.76984 0.137721
529 1 0.295239 0.756555 0.133988
2011 1 0.366452 0.733922 0.1441
1981 1 0.443464 0.72648 0.14497
36 1 0.745385 0.744656 0.149518
53 1 0.98012 0.757083 0.136481
1050 1 0.0601708 0.778225 0.147135
357 1 0.230782 0.831917 0.159273
252 1 0.33891 0.822091 0.164223
25 1 0.414596 0.798727 0.164623
1497 1 0.569881 0.784234 0.144279
530 1 0.753677 0.823018 0.124718
391 1 0.933419 0.827267 0.120391
429 1 0.0122601 0.846235 0.134043
1051 1 0.160516 0.848073 0.11651
914 1 0.287711 0.882628 0.137698
1873 1 0.495564 0.852093 0.148132
1898 1 0.572133 0.876545 0.157151
1014 1 0.628959 0.842375 0.112315
1649 1 0.691222 0.882839 0.149039
1827 1 0.849135 0.836969 0.115603
1884 1 0.083643 0.889481 0.114653
1695 1 0.412795 0.9175 0.117668
826 1 0.483463 0.927393 0.163235
1394 1 0.628667 0.927193 0.130226
974 1 0.791866 0.895539 0.139149
1216 1 0.859449 0.930884 0.137054
1377 1 0.952097 0.898474 0.16557
97 1 0.00249881 0.94747 0.130409
58 1 0.255028 0.973937 0.111404
1524 1 0.378827 0.991217 0.12604
1760 1 0.565648 0.975381 0.13987
1268 1 0.701647 0.961735 0.1546
709 1 0.785816 0.973724 0.138388
1948 1 0.929797 0.974975 0.150388
1620 1 0.0816399 0.0317011 0.198427
865 1 0.368477 0.000858244 0.207624
1576 1 0.574988 0.0397673 0.186582
459 1 0.69757 0.0420251 0.186728
998 1 0.0333313 0.0955685 0.184347
1426 1 0.154216 0.0632263 0.176111
489 1 0.361087 0.0747752 0.167999
353 1 0.437474 0.0745354 0.194838
621 1 0.511721 0.0824296 0.214499
851 1 0.871756 0.0679139 0.19495
1140 1 0.949738 0.0716545 0.182363
27 1 0.111905 0.127852 0.180967
432 1 0.559578 0.149271 0.17269
624 1 0.688422 0.121714 0.220315
1698 1 0.812039 0.129741 0.176851
1686 1 0.0122071 0.172493 0.204483
1854 1 0.083614 0.2202 0.172044
560 1 0.26763 0.176592 0.198845
1665 1 0.415011 0.21978 0.195064
1542 1 0.505218 0.203161 0.204988
121 1 0.649356 0.180938 0.175925
416 1 0.741689 0.188193 0.1716
1230 1 0.855363 0.220804 0.189285
1843 1 0.935402 0.210105 0.192578
636 1 0.288783 0.255011 0.188848
1191 1 0.587661 0.242015 0.167964
1260 1 0.781579 0.258635 0.194471
1928 1 0.0419083 0.299939 0.168984
417 1 0.203958 0.27779 0.199016
1581 1 0.269953 0.324638 0.221158
2036 1 0.451088 0.291238 0.188083
929 1 0.571157 0.329413 0.180312
1534 1 0.875521 0.300595 0.218152
413 1 0.954448 0.288201 0.202042
876 1 0.000732163 0.368837 0.168769
1177 1 0.128597 0.334102 0.185417
1365 1 0.353303 0.347008 0.206967
1478 1 0.678918 0.376939 0.196828
1418 1 0.75244 0.366818 0.168281
1328 1 0.831549 0.361716 0.168978
818 1 0.0754025 0.398003 0.174515
1833 1 0.184682 0.424007 0.1927
779 1 0.37084 0.421492 0.182848
137 1 0.537657 0.436748 0.200772
1011 1 0.618726 0.432107 0.199661
725 1 0.794715 0.408221 0.213904
1754 1 0.956316 0.436581 0.213518
1944 1 0.083027 0.483303 0.195113
835 1 0.243565 0.481981 0.188208
1225 1 0.468137 0.496627 0.208779
1071 1 0.778306 0.489898 0.210006
96 1 0.132439 0.551886 0.211134
433 1 0.323309 0.547035 0.180042
1672 1 0.394504 0.504257 0.182268
1825 1 0.508962 0.551746 0.176118
1517 1 0.720942 0.53303 0.171153
1373 1 0.856844 0.507425 0.167667
602 1 0.944119 0.512875 0.203468
1214 1 0.0550198 0.567654 0.185999
1024 1 0.207352 0.558618 0.174869
1603 1 0.386284 0.598506 0.220198
644 1 0.59386 0.587087 0.168986
784 1 0.651966 0.556186 0.207906
98 1 0.0323389 0.653948 0.215486
1864 1 0.112141 0.645214 0.198372
281 1 0.265066 0.61857 0.193508
1293 1 0.450963 0.61636 0.177382
542 1 0.656157 0.638239 0.172278
199 1 0.803825 0.636577 0.191615
1765 1 0.877675 0.616702 0.172957
665 1 0.153227 0.713596 0.173439
1570 1 0.238273 0.709519 0.172212
875 1 0.320041 0.693455 0.195068
844 1 0.395931 0.680404 0.207244
276 1 0.491382 0.68191 0.19309
2040 1 0.582048 0.670057 0.190966
1702 1 0.66018 0.716587 0.178726
426 1 0.734164 0.691753 0.208294
1232 1 0.989072 0.719455 0.20732
1899 1 0.0741416 0.724784 0.20954
224 1 0.196498 0.765514 0.219936
662 1 0.503639 0.770136 0.188919
1078 1 0.57724 0.747801 0.219312
1267 1 0.0335563 0.791472 0.22044
1270 1 0.124699 0.798555 0.183354
1999 1 0.277333 0.778681 0.215528
1912 1 0.611619 0.825677 0.205508
1356 1 0.674398 0.796088 0.172607
460 1 0.821705 0.782711 0.173827
1463 1 0.904279 0.77834 0.173003
584 1 0.963319 0.824339 0.200742
824 1 0.0299136 0.878762 0.211783
1145 1 0.129226 0.88419 0.177738
1366 1 0.283744 0.866461 0.218237
942 1 0.425211 0.87449 0.183749
1952 1 0.784139 0.846839 0.206837
997 1 0.87185 0.851098 0.188312
1212 1 0.216068 0.908394 0.179532
518 1 0.35817 0.915839 0.176142
1909 1 0.5526 0.933509 0.209543
1047 1 0.626134 0.908428 0.208986
93 1 0.748966 0.920052 0.20795
15 1 0.888313 0.923355 0.211977
676 1 0.0772058 0.945759 0.168633
368 1 0.154577 0.951939 0.206849
476 1 0.214552 0.989488 0.171841
78 1 0.287913 0.957899 0.184949
1273 1 0.441047 0.987036 0.189053
355 1 0.633715 0.989075 0.201359
889 1 0.985171 0.981565 0.209223
871 1 0.0198015 0.04341 0.248228
1238 1 0.183893 0.0181582 0.248588
1220 1 0.503143 0.00648806 0.235703
251 1 0.576004 0.00637503 0.259194
681 1 0.654273 0.0403108 0.256397
1645 1 0.817628 0.0315736 0.265867
2000 1 0.908284 0.00195624 0.222763
643 1 0.126403 0.0725113 0.249617
1598 1 0.237954 0.0755486 0.225123
1429 1 0.329345 0.0658556 0.243821
1508 1 0.398534 0.101732 0.259849
474 1 0.597401 0.0972579 0.237982
1575 1 0.753697 0.0769909 0.238061
201 1 0.0599483 0.125462 0.261848
1007 1 0.180868 0.12866 0.223666
1640 1 0.259591 0.140985 0.277279
947 1 0.334346 0.147711 0.233814
791 1 0.452901 0.149987 0.228716
758 1 0.543645 0.14926 0.26095
1637 1 0.625225 0.166602 0.265714
548 1 0.74018 0.155508 0.266171
49 1 0.819877 0.119527 0.262956
1878 1 0.88515 0.159197 0.232002
813 1 0.978725 0.111786 0.247281
1656 1 0.197046 0.207669 0.239951
896 1 0.269073 0.221367 0.265284
1223 1 0.390883 0.182768 0.275781
1124 1 0.695654 0.21232 0.235295
1511 1 0.802336 0.188705 0.23697
1205 1 0.958224 0.18535 0.262172
272 1 0.0217807 0.251134 0.231592
978 1 0.130068 0.262765 0.231791
1010 1 0.34378 0.232302 0.237069
525 1 0.57321 0.223059 0.241514
1539 1 0.891164 0.239971 0.262767
221 1 0.397836 0.285446 0.26199
680 1 0.513202 0.278417 0.239577
63 1 0.638869 0.286121 0.229401
1379 1 0.719878 0.293817 0.231676
316 1 0.788762 0.332138 0.238331
944 1 0.0495279 0.35089 0.234415
790 1 0.188053 0.341052 0.240948
1257 1 0.435286 0.357514 0.223721
140 1 0.519707 0.369343 0.239199
1761 1 0.602393 0.359579 0.245607
1795 1 0.876194 0.38089 0.232111
1295 1 0.971336 0.353632 0.245919
1671 1 0.0329175 0.429371 0.23822
1247 1 0.114287 0.419446 0.24647
329 1 0.296415 0.403429 0.229112
1224 1 0.402934 0.441188 0.253089
1733 1 0.648027 0.423804 0.274364
1477 1 0.738208 0.398615 0.267136
1074 1 0.164989 0.481224 0.250475
1973 1 0.242646 0.451604 0.27037
1518 1 0.330236 0.483857 0.230896
420 1 0.623895 0.496576 0.257516
212 1 0.693559 0.466044 0.226102
500 1 0.875987 0.461535 0.237489
710 1 0.0180257 0.507396 0.236414
713 1 0.263695 0.540946 0.232915
534 1 0.4062 0.518032 0.267563
1577 1 0.564293 0.539904 0.237033
279 1 0.841996 0.551057 0.232656
1728 1 0.0699584 0.578119 0.266622
1988 1 0.184298 0.567049 0.272956
1979 1 0.331671 0.571338 0.272765
904 1 0.469509 0.564026 0.255355
1891 1 0.7687 0.582654 0.235775
148 1 0.915943 0.56011 0.260843
1136 1 0.991971 0.581749 0.227701
1834 1 0.186488 0.657439 0.242035
1519 1 0.253564 0.611858 0.271147
1845 1 0.332348 0.656547 0.263416
1859 1 0.452869 0.646574 0.257273
645 1 0.529318 0.612569 0.227462
259 1 0.60907 0.618303 0.245229
708 1 0.69541 0.618486 0.242606
1304 1 0.770755 0.658988 0.27255
38 1 0.87043 0.646442 0.257028
2024 1 0.951383 0.649998 0.225886
1466 1 0.256605 0.698463 0.253806
1846 1 0.544677 0.682669 0.263705
1890 1 0.631727 0.693655 0.249449
494 1 0.808674 0.713202 0.223767
430 1 0.89671 0.715243 0.228744
801 1 0.135199 0.727951 0.260339
216 1 0.362714 0.759862 0.23453
118 1 0.441247 0.740263 0.23893
1725 1 0.675901 0.766967 0.243237
601 1 0.75337 0.774572 0.225798
163 1 0.951055 0.764112 0.272475
1805 1 0.0999005 0.812126 0.264
1087 1 0.241706 0.824147 0.274312
2027 1 0.321114 0.811917 0.276377
515 1 0.46435 0.823507 0.240254
1583 1 0.838879 0.794002 0.252331
410 1 0.175056 0.843914 0.229068
1869 1 0.393917 0.856809 0.258852
366 1 0.534071 0.851249 0.233121
333 1 0.60532 0.873919 0.276823
1515 1 0.702634 0.848356 0.227014
549 1 0.83636 0.875094 0.260968
563 1 0.911454 0.839231 0.261251
794 1 0.126435 0.912377 0.267228
1882 1 0.212021 0.936136 0.253758
1203 1 0.327707 0.915769 0.254275
149 1 0.405084 0.932832 0.237198
915 1 0.484739 0.909867 0.239869
1543 1 0.687687 0.938597 0.257485
1431 1 0.959203 0.91098 0.245924
1033 1 0.03018 0.97192 0.271498
1770 1 0.105514 0.98953 0.263302
1348 1 0.292332 0.994429 0.256602
1219 1 0.745585 0.994673 0.230539
1398 1 0.822898 0.963586 0.228948
1976 1 0.0613231 0.0379855 0.318409
1180 1 0.138255 0.0373784 0.322988
469 1 0.399261 0.00350287 0.281987
1128 1 0.716649 0.00818702 0.304009
196 1 0.895427 0.0493496 0.282833
780 1 0.191903 0.0924052 0.291247
1174 1 0.262238 0.0695321 0.307591
987 1 0.351345 0.0597773 0.321037
21 1 0.460719 0.0573549 0.280302
334 1 0.535796 0.0615397 0.298151
816 1 0.617188 0.060793 0.330811
1147 1 0.68459 0.0930674 0.306882
79 1 0.774714 0.0715396 0.311735
1020 1 0.981693 0.0733305 0.316556
363 1 0.00724414 0.151185 0.328677
1819 1 0.134666 0.161413 0.279288
240 1 0.337723 0.142706 0.319982
1767 1 0.482521 0.134614 0.308808
1333 1 0.919462 0.127499 0.30605
412 1 0.0698524 0.211489 0.278606
2002 1 0.192629 0.1988 0.32319
1215 1 0.532386 0.214578 0.307801
656 1 0.687331 0.173879 0.327952
838 1 0.846072 0.188899 0.301867
754 1 0.136582 0.255704 0.322009
592 1 0.284452 0.276724 0.333047
1049 1 0.462283 0.225211 0.277944
1073 1 0.661752 0.247949 0.296676
1382 1 0.738383 0.23798 0.29754
2039 1 0.808723 0.265766 0.278203
1239 1 0.962203 0.266971 0.297769
666 1 0.0431557 0.290492 0.300424
1662 1 0.113108 0.325676 0.278706
1652 1 0.217879 0.281343 0.288009
679 1 0.3267 0.319587 0.277943
1892 1 0.462258 0.325597 0.303386
1160 1 0.574025 0.290666 0.289532
845 1 0.764083 0.322116 0.313584
122 1 0.911211 0.325307 0.283384
1275 1 0.255241 0.370559 0.297791
507 1 0.380005 0.37205 0.30222
80 1 0.539282 0.360394 0.312821
1934 1 0.68855 0.340172 0.293642
1063 1 0.840153 0.356601 0.308656
1910 1 0.983824 0.339815 0.331349
1886 1 0.0624823 0.39014 0.303206
544 1 0.123523 0.439612 0.324651
99 1 0.178993 0.398711 0.289757
1574 1 0.459669 0.40388 0.298993
335 1 0.560656 0.441227 0.287797
1867 1 0.809482 0.437689 0.295672
400 1 0.90178 0.420059 0.30463
2028 1 0.978389 0.415964 0.297249
243 1 0.0526918 0.474385 0.301595
439 1 0.200158 0.481183 0.32687
599 1 0.327523 0.444845 0.299177
783 1 0.502587 0.495244 0.281196
899 1 0.734595 0.467328 0.321306
1521 1 0.943312 0.490415 0.286194
1202 1 0.00645581 0.541584 0.30365
1331 1 0.11872 0.521321 0.303864
315 1 0.276196 0.513301 0.308355
446 1 0.353213 0.515181 0.32812
144 1 0.564931 0.50684 0.329961
1651 1 0.630019 0.554929 0.320703
1458 1 0.701856 0.530874 0.286681
1618 1 0.787225 0.520645 0.289888
1880 1 0.866014 0.503808 0.30237
566 1 0.410084 0.592732 0.298795
1807 1 0.549144 0.579942 0.301502
1563 1 0.687473 0.607263 0.328558
659 1 0.818448 0.599744 0.301428
701 1 0.89078 0.603618 0.328107
737 1 0.0973218 0.666604 0.295669
778 1 0.356516 0.64212 0.332728
1995 1 0.517263 0.650044 0.328786
1279 1 0.964061 0.615576 0.297897
678 1 0.00439991 0.683266 0.290122
376 1 0.184318 0.68991 0.317254
568 1 0.273705 0.669639 0.324441
1187 1 0.395171 0.707377 0.296604
156 1 0.475254 0.714493 0.313943
1778 1 0.701074 0.691349 0.294464
403 1 0.847536 0.687111 0.322973
1969 1 0.925846 0.688851 0.297243
1277 1 0.0496428 0.752084 0.283214
586 1 0.239344 0.754303 0.322135
1756 1 0.314957 0.732849 0.289299
1241 1 0.552991 0.728943 0.331903
1290 1 0.634069 0.722544 0.324382
1690 1 0.772545 0.741266 0.291293
1541 1 0.882605 0.757544 0.30773
1810 1 0.168638 0.79293 0.297785
1742 1 0.421249 0.798106 0.311087
200 1 0.517134 0.77971 0.283471
1213 1 0.615412 0.793317 0.286833
1559 1 0.702349 0.786732 0.323077
236 1 0.765946 0.822808 0.286277
512 1 0.847316 0.830779 0.320777
555 1 0.0613058 0.885318 0.303183
1604 1 0.191047 0.881172 0.311978
635 1 0.486739 0.867277 0.320778
689 1 0.679541 0.869742 0.296678
1364 1 0.993049 0.845273 0.28333
175 1 0.26999 0.889309 0.31037
2035 1 0.555669 0.93723 0.298036
768 1 0.761964 0.916113 0.289534
745 1 0.89361 0.899161 0.314086
1538 1 0.992909 0.92304 0.318978
245 1 0.173523 0.967128 0.315784
1664 1 0.246993 0.993973 0.332437
48 1 0.338717 0.965644 0.317742
960 1 0.474557 0.96079 0.303573
41 1 0.632448 0.973525 0.304433
249 1 0.84534 0.969557 0.307414
1726 1 0.950101 0.983377 0.292068
65 1 0.216976 0.0466273 0.379036
398 1 0.309463 0.0213572 0.378488
1551 1 0.386526 0.00209588 0.366436
982 1 0.493216 0.0289952 0.350696
470 1 0.656856 0.00189532 0.371097
1836 1 0.716024 0.055408 0.372995
646 1 0.843566 0.034834 0.34824
1522 1 0.0842145 0.109853 0.337656
1066 1 0.426325 0.0839654 0.351551
846 1 0.917367 0.0673115 0.364035
1697 1 0.151578 0.116901 0.382216
1354 1 0.226463 0.127965 0.354425
1119 1 0.421509 0.163539 0.352322
684 1 0.559126 0.126422 0.338314
1251 1 0.638582 0.126498 0.374756
498 1 0.772369 0.159177 0.344576
696 1 0.852177 0.116936 0.346216
208 1 0.954375 0.132411 0.382827
468 1 0.0990689 0.186814 0.356893
1053 1 0.272251 0.194265 0.340596
1481 1 0.351551 0.221353 0.335381
1294 1 0.496166 0.182448 0.372092
10 1 0.616512 0.203412 0.342706
104 1 0.880309 0.180681 0.373954
910 1 0.950172 0.202359 0.342891
1532 1 0.0237355 0.227084 0.356252
2017 1 0.215034 0.262384 0.373964
1737 1 0.431191 0.238916 0.353269
1271 1 0.502446 0.276848 0.347844
1338 1 0.555578 0.243206 0.387969
414 1 0.627918 0.271037 0.383515
1415 1 0.718778 0.229589 0.386596
1424 1 0.804543 0.237538 0.370841
594 1 0.935939 0.276765 0.371524
1194 1 0.387259 0.307462 0.358688
1400 1 0.702063 0.307304 0.361817
959 1 0.813445 0.323594 0.383306
1989 1 0.866021 0.283931 0.339225
188 1 0.0833175 0.333646 0.362627
113 1 0.180097 0.33914 0.34173
345 1 0.254065 0.342038 0.374535
265 1 0.3159 0.37638 0.345511
370 1 0.430768 0.374911 0.365168
1866 1 0.620425 0.333405 0.340803
1210 1 0.771797 0.386895 0.349734
1423 1 0.893221 0.34763 0.382776
640 1 0.20812 0.405443 0.377521
162 1 0.509976 0.435678 0.349269
886 1 0.600412 0.411307 0.352102
1835 1 0.686638 0.392001 0.358843
1568 1 0.840546 0.430859 0.375148
1296 1 0.960038 0.403913 0.374243
2021 1 0.0053889 0.480544 0.36509
220 1 0.073749 0.448353 0.386524
1062 1 0.273234 0.448172 0.356675
2033 1 0.39767 0.448075 0.339562
1852 1 0.463016 0.496725 0.351299
1314 1 0.646504 0.480691 0.343609
1751 1 0.807437 0.499749 0.363325
852 1 0.912238 0.473238 0.374269
1731 1 0.0651179 0.537093 0.36419
1675 1 0.145672 0.519823 0.381994
154 1 0.220367 0.5519 0.348156
1840 1 0.729077 0.534963 0.360679
1117 1 0.952465 0.552751 0.363069
1272 1 0.125039 0.601341 0.335973
1889 1 0.292504 0.591155 0.352839
57 1 0.405839 0.557068 0.374194
1964 1 0.47447 0.579179 0.349542
842 1 0.549145 0.584038 0.379402
1768 1 0.791857 0.579691 0.385812
111 1 0.0398207 0.616946 0.337839
174 1 0.188679 0.625605 0.376261
44 1 0.437159 0.651662 0.339095
253 1 0.593617 0.649033 0.344946
1161 1 0.760619 0.639759 0.349496
1449 1 0.840105 0.639426 0.382845
825 1 0.971223 0.653404 0.365581
336 1 0.0497974 0.702812 0.347577
589 1 0.122653 0.676836 0.373333
1818 1 0.666478 0.669944 0.371802
557 1 0.727273 0.721168 0.36208
799 1 0.893971 0.704098 0.386735
1503 1 0.111485 0.761921 0.348451
969 1 0.182329 0.736196 0.376576
1064 1 0.310084 0.725503 0.367588
848 1 0.427686 0.750398 0.374204
486 1 0.659968 0.757309 0.388454
170 1 0.969468 0.738671 0.350593
1615 1 0.046421 0.808978 0.337391
442 1 0.209142 0.823895 0.376242
202 1 0.289313 0.826253 0.34743
303 1 0.358088 0.798174 0.385018
141 1 0.495301 0.788802 0.368149
1523 1 0.559831 0.832904 0.340345
1505 1 0.637823 0.824412 0.356116
1863 1 0.781232 0.780447 0.360969
1189 1 0.861392 0.78042 0.38818
580 1 0.931774 0.811675 0.333695
375 1 0.12585 0.847884 0.339264
1186 1 0.355326 0.868167 0.349856
1065 1 0.439287 0.846977 0.387236
513 1 0.743093 0.86956 0.363287
2038 1 0.990312 0.854009 0.369345
1135 1 0.0468212 0.919846 0.378628
84 1 0.128367 0.920647 0.361203
1448 1 0.212198 0.920094 0.380664
1368 1 0.285872 0.94358 0.377438
1902 1 0.422886 0.908396 0.337338
996 1 0.518138 0.917736 0.376761
209 1 0.610708 0.913748 0.349306
752 1 0.693065 0.939018 0.340931
1968 1 0.824934 0.904794 0.35575
1206 1 0.938108 0.913648 0.380178
693 1 0.0864439 0.986249 0.370872
1946 1 0.45385 0.964025 0.384231
1378 1 0.569958 0.995712 0.347702
1925 1 0.77758 0.987022 0.352313
1208 1 0.907592 0.984272 0.360273
85 1 0.988535 0.98144 0.37002
193 1 0.444713 0.0362269 0.413648
1168 1 0.531882 0.0139887 0.417922
1173 1 0.601543 0.0523762 0.408573
1130 1 0.696566 0.00677755 0.435888
1715 1 0.783162 0.027514 0.435107
1227 1 0.936612 0.0220206 0.421025
450 1 0.0133801 0.0643316 0.393812
86 1 0.0994926 0.0590096 0.401255
1674 1 0.294353 0.0978596 0.400892
478 1 0.370235 0.0621281 0.423141
91 1 0.521192 0.0935874 0.40445
1399 1 0.787594 0.0937771 0.393588
717 1 0.857776 0.0584256 0.421255
260 1 0.0377043 0.154962 0.406421
1055 1 0.214582 0.115191 0.430804
1148 1 0.354473 0.148951 0.427571
90 1 0.429124 0.116745 0.427082
2019 1 0.713854 0.137935 0.399161
1658 1 0.892609 0.134099 0.434117
1297 1 0.164703 0.203201 0.397126
491 1 0.26948 0.170431 0.41594
185 1 0.577094 0.168584 0.405476
1322 1 0.649702 0.199909 0.414807
1493 1 0.785772 0.171507 0.418915
777 1 0.965459 0.200509 0.419081
682 1 0.0654496 0.233414 0.434617
1879 1 0.304311 0.243355 0.396099
1549 1 0.377303 0.243132 0.422986
1222 1 0.470325 0.224788 0.433825
1185 1 0.780235 0.256452 0.438763
1903 1 0.0169031 0.289259 0.404881
1841 1 0.0811979 0.318711 0.442476
83 1 0.13955 0.284146 0.393761
1646 1 0.32902 0.322699 0.40619
831 1 0.47028 0.301289 0.414064
2025 1 0.54678 0.322513 0.389228
1306 1 0.685525 0.282998 0.438331
850 1 0.747691 0.330907 0.439121
606 1 0.856547 0.285181 0.433393
1175 1 0.0357595 0.380949 0.400043
304 1 0.131964 0.387987 0.403718
1340 1 0.188738 0.337257 0.422977
354 1 0.399546 0.333872 0.429601
583 1 0.498694 0.388812 0.413605
110 1 0.634999 0.362997 0.418221
1579 1 0.957116 0.335764 0.435146
1775 1 0.364697 0.405131 0.404794
1013 1 0.442817 0.442121 0.405538
284 1 0.713995 0.400819 0.434491
305 1 0.791868 0.41043 0.437456
46 1 0.900923 0.415874 0.430349
1483 1 0.129499 0.456736 0.443157
1109 1 0.206909 0.478207 0.409935
1052 1 0.334118 0.476977 0.400107
572 1 0.528309 0.491551 0.402418
561 1 0.639276 0.44659 0.417596
1876 1 0.742081 0.473356 0.411528
1494 1 0.852422 0.487566 0.429691
1939 1 0.270707 0.523802 0.404132
1919 1 0.394922 0.513603 0.440779
147 1 0.470858 0.549882 0.426688
820 1 0.602114 0.52094 0.39979
873 1 0.677029 0.519981 0.424891
405 1 0.955034 0.500999 0.439964
81 1 0.00282232 0.590309 0.412526
1100 1 0.0810191 0.602805 0.419647
1246 1 0.255913 0.596109 0.427536
1179 1 0.33176 0.562057 0.439177
1302 1 0.633649 0.597152 0.394497
1045 1 0.712661 0.597259 0.412916
983 1 0.864521 0.55617 0.391814
406 1 0.313708 0.649856 0.403012
1315 1 0.438341 0.621151 0.411644
595 1 0.569978 0.629232 0.436599
878 1 0.745164 0.662381 0.437216
1070 1 0.906994 0.627279 0.421317
933 1 0.0685849 0.699028 0.426811
4 1 0.23867 0.680722 0.40216
246 1 0.390134 0.683221 0.396108
408 1 0.45121 0.709581 0.440828
298 1 0.515003 0.701561 0.39681
1806 1 0.599311 0.70205 0.400212
1901 1 0.79691 0.708494 0.395986
1639 1 0.972067 0.707571 0.430178
1681 1 0.0551982 0.770665 0.403225