ITEM: TIMESTEP
100000
ITEM: NUMBER OF ATOMS
2048
ITEM: BOX BOUNDS pp pp pp
0.0000000000000000e+00 1.1093780389610155e+01
0.0000000000000000e+00 1.1093780389610155e+01
0.0000000000000000e+00 1.1093780389610155e+01
ITEM: ATOMS id type xs ys zs
70 1 0.314755 0.187156 0.248467
225 1 0.255487 0.247171 0.129221
219 1 0.0625552 0.248374 0.184662
66 1 0.183353 0.187108 0.250068
201 1 0.251687 0.250685 0.0018437
10 1 0.313696 0.0633867 0.00552655
20 1 0.123895 0.188117 0.0612206
24 1 0.249212 0.18589 0.0663147
42 1 0.187434 0.1854 0.126656
22 1 0.311209 0.188191 0.0025738
54 1 0.182928 0.0570206 0.249306
39 1 0.0626839 0.123281 0.19216
44 1 0.121072 0.185789 0.189024
48 1 0.255189 0.186362 0.187251
8 1 0.122102 0.0616274 0.0648854
19 1 0.182911 0.123912 0.0687268
12 1 0.247937 0.0637844 0.0630706
23 1 0.313145 0.126259 0.058465
15 1 0.0607183 0.123795 0.0642117
36 1 0.244981 0.0633428 0.189115
43 1 0.186016 0.127353 0.191776
46 1 0.315145 0.184833 0.127408
34 1 0.317453 0.0602165 0.121308
32 1 0.123326 0.0596449 0.190014
26 1 0.0608673 0.0650601 0.129655
30 1 0.188356 0.061834 0.126719
45 1 0.25131 0.126654 0.128457
47 1 0.317072 0.122471 0.189669
38 1 0.0599212 0.18684 0.121828
41 1 0.12238 0.12493 0.128695
35 1 0.311042 -0.000213723 0.188325
4 1 0.000579858 0.0614756 0.0631082
6 1 0.183792 0.0620434 0.000351314
62 1 0.0569916 0.187495 0.245969
11 1 0.315577 0.00148892 0.0631776
221 1 0.12357 0.243849 0.124701
61 1 -0.000595749 0.124346 0.24719
33 1 0.255141 0.003362 0.124025
249 1 0.246325 0.24765 0.245967
50 1 0.0622841 0.0607194 0.249847
199 1 0.186762 0.246547 0.062206
223 1 0.181854 0.245928 0.186285
3 1 0.0607225 0.00259072 0.0633182
49 1 0.000845051 0.00120335 0.248045
69 1 0.252617 0.127943 0.247792
9 1 0.246584 0.00282355 0.00256341
193 1 -0.00137664 0.251024 0.0010075
18 1 0.186777 0.186697 0.00265134
2 1 0.0617715 0.0612728 0.00246046
55 1 0.18272 0.000974491 0.313381
56 1 0.118654 0.0624611 0.31616
51 1 0.0633697 0.00170013 0.314415
60 1 0.245845 0.065033 0.312757
113 1 0.122626 0.122681 0.498093
81 1 0.251338 -5.46292e-05 0.37608
58 1 0.311794 0.0624842 0.249144
52 1 0.00201271 0.0613427 0.313605
72 1 0.248824 0.184677 0.312516
98 1 0.0607097 0.0620377 0.500091
74 1 0.0570314 0.0596719 0.383188
63 1 0.0604915 0.126831 0.308132
89 1 0.122952 0.127004 0.375141
78 1 0.187956 0.0629803 0.375666
68 1 0.122343 0.183042 0.313824
67 1 0.186143 0.121698 0.308709
93 1 0.252031 0.123772 0.376722
71 1 0.311268 0.123735 0.308758
80 1 0.119645 0.0612214 0.435838
94 1 0.307631 0.19122 0.375206
92 1 0.119693 0.184079 0.438731
95 1 0.313026 0.127359 0.444428
82 1 0.314368 0.060494 0.373241
86 1 0.059446 0.182492 0.373749
87 1 0.0578148 0.124497 0.435668
91 1 0.183628 0.132624 0.438939
90 1 0.185246 0.185805 0.370662
96 1 0.245435 0.188525 0.439842
84 1 0.253845 0.0665857 0.438085
102 1 0.186658 0.0571375 0.497253
269 1 0.121634 0.247963 0.375398
59 1 0.312999 0.0037579 0.311585
251 1 0.307773 0.247612 0.308091
247 1 0.185099 0.2442 0.311115
105 1 0.252096 0.00146276 0.500877
265 1 0.00244394 0.249038 0.375112
271 1 0.191306 0.249158 0.434715
101 1 0.123088 -0.00144346 0.496721
118 1 0.313422 0.191987 0.497255
65 1 0.126038 0.119331 0.251136
245 1 0.122022 0.245115 0.250671
57 1 0.250726 0.00331198 0.255137
104 1 0.124225 0.0613453 0.561038
114 1 0.185858 0.190593 0.500542
165 1 0.251457 0.122702 0.745705
108 1 0.250558 0.0583592 0.560625
111 1 0.0617147 0.125429 0.565012
341 1 0.127122 0.247257 0.748471
139 1 0.185067 0.123627 0.688389
115 1 0.186105 0.122409 0.559956
134 1 0.0596848 0.185401 0.623
131 1 0.316161 -0.00161081 0.690445
116 1 0.123868 0.185519 0.565072
315 1 0.0615302 0.250313 0.689262
120 1 0.24611 0.181993 0.56196
129 1 0.248972 0.00190415 0.622236
126 1 0.182542 0.0609677 0.62328
128 1 0.123122 0.0560333 0.682543
122 1 0.0634302 0.0600739 0.622136
137 1 0.123619 0.124203 0.6244
119 1 0.312428 0.125468 0.561822
130 1 0.313251 0.0578791 0.621663
144 1 0.247155 0.183012 0.682611
138 1 0.185169 0.18167 0.623441
141 1 0.247513 0.119546 0.620698
140 1 0.125944 0.184545 0.687675
142 1 0.309955 0.183648 0.62716
132 1 0.248414 0.0590733 0.685594
135 1 0.0612058 0.116546 0.682933
143 1 0.312288 0.125104 0.685371
345 1 0.248894 0.244485 0.747667
297 1 0.246389 0.25028 0.501737
295 1 0.183581 0.244958 0.563668
158 1 0.0599081 0.185748 0.749482
106 1 0.314774 0.0628154 0.499568
299 1 0.310841 0.24529 0.563017
317 1 0.120544 0.248432 0.626506
323 1 0.306466 0.247497 0.686978
321 1 0.247131 0.248658 0.624255
150 1 0.188231 0.0594517 0.744187
157 1 0.00227486 0.125169 0.745417
110 1 0.0605571 0.188466 0.499012
162 1 0.188333 0.183772 0.746937
99 1 0.0610232 0.000185751 0.560874
319 1 0.185058 0.24479 0.682458
166 1 0.311183 0.188271 0.746889
146 1 0.0661025 0.0570398 0.747654
154 1 0.313587 0.0669626 0.745206
117 1 0.249141 0.129033 0.501304
289 1 -1.37374e-05 0.252037 0.501638
152 1 0.127272 0.057748 0.809532
156 1 0.24878 0.0608403 0.806824
163 1 0.189107 0.123756 0.813028
167 1 0.308917 0.122554 0.810684
181 1 0.00504518 0.127097 0.875912
175 1 0.193126 0.00208153 0.933019
174 1 0.189149 0.0614681 0.876012
179 1 0.31484 0.0043703 0.941682
177 1 0.253491 0.00274277 0.875393
178 1 0.311928 0.0679196 0.877001
159 1 0.0609295 0.12665 0.812726
164 1 0.125141 0.189189 0.809664
168 1 0.247034 0.186761 0.809929
169 1 0.000310648 0.00119704 0.874331
186 1 0.191036 0.188989 0.87065
188 1 0.127283 0.191087 0.936332
170 1 0.0598563 0.0609956 0.875765
183 1 0.0680112 0.126252 0.933888
189 1 0.249842 0.123942 0.878993
185 1 0.125901 0.119583 0.876149
190 1 0.312331 0.184088 0.876775
182 1 0.0654424 0.187421 0.872869
371 1 0.310529 0.246661 0.939078
187 1 0.189981 0.125259 0.936933
191 1 0.312474 0.130019 0.942171
176 1 0.125923 0.064467 0.93788
180 1 0.251304 0.0616588 0.94132
192 1 0.247719 0.189504 0.940717
148 1 0.00383288 0.0623682 0.808073
14 1 0.0651771 0.187085 0.996152
13 1 -0.000312598 0.12557 0.998094
171 1 0.0654193 0.00454959 0.938019
151 1 0.187963 0.00141581 0.812989
347 1 0.308221 0.249163 0.814996
365 1 0.130504 0.250281 0.872892
21 1 0.246243 0.126706 0.998414
17 1 0.126307 0.12334 0.99895
5 1 0.123504 0.00123922 1.00003
161 1 0.126221 0.123491 0.75347
198 1 0.190148 0.309294 0.00182424
211 1 0.186848 0.372708 0.0637192
204 1 0.252396 0.310335 0.0684818
227 1 0.317478 0.250545 0.18798
207 1 0.0616743 0.378166 0.0602604
212 1 0.124279 0.440359 0.0653514
261 1 0.244853 0.369776 0.247027
220 1 0.000490421 0.315848 0.186297
210 1 0.190013 0.439472 0.00339016
203 1 0.316016 0.25156 0.0651192
208 1 0.000912036 0.43828 0.0626144
226 1 0.315803 0.313159 0.123221
200 1 0.124671 0.311575 0.0583443
233 1 0.123841 0.373532 0.12124
237 1 0.248715 0.373374 0.123005
234 1 0.185198 0.440588 0.126372
216 1 0.249399 0.437037 0.0650326
215 1 0.31173 0.37382 0.0666278
235 1 0.185367 0.374561 0.183491
254 1 0.0598564 0.433639 0.24472
222 1 0.182798 0.308253 0.118937
231 1 0.0579738 0.375928 0.183149
224 1 0.125654 0.309306 0.184039
218 1 0.0635123 0.315212 0.119772
228 1 0.243751 0.31262 0.186274
230 1 0.0636467 0.439764 0.124175
236 1 0.121794 0.434792 0.184959
239 1 0.308311 0.370331 0.186906
238 1 0.313085 0.435951 0.126567
240 1 0.249775 0.435163 0.187546
195 1 0.0622844 0.251888 0.0593574
257 1 0.12345 0.375097 0.249375
395 1 0.313984 0.497054 0.0645762
213 1 0.252493 0.370036 0.00400747
217 1 -0.000779678 0.250953 0.123371
437 1 0.125227 0.496379 0.250891
250 1 0.308536 0.308401 0.247442
417 1 0.251621 0.496411 0.1286
419 1 0.314267 0.498837 0.187532
413 1 0.123904 0.498481 0.123244
242 1 0.063222 0.315173 0.24624
258 1 0.188435 0.439439 0.248732
202 1 0.311189 0.309295 0.00282644
206 1 0.0645902 0.438413 0.00183921
243 1 0.0639284 0.252594 0.309318
273 1 0.250538 0.249522 0.371534
443 1 0.309532 0.497222 0.314347
248 1 0.125125 0.313354 0.311552
259 1 0.187332 0.375076 0.311224
465 1 0.25127 0.495724 0.375049
256 1 0.000964566 0.436227 0.312685
267 1 0.0631711 0.248341 0.439618
275 1 0.308635 0.249612 0.435611
435 1 0.0618402 0.495785 0.307363
264 1 0.245059 0.438633 0.311962
276 1 0.25075 0.311476 0.43452
287 1 0.311786 0.371742 0.431771
252 1 0.250118 0.310576 0.309614
288 1 0.252882 0.436015 0.43857
263 1 0.309777 0.377601 0.312276
255 1 0.0617149 0.374333 0.313649
260 1 0.123007 0.434487 0.313472
282 1 0.183478 0.436504 0.375868
278 1 0.0624991 0.434417 0.377171
286 1 0.311783 0.438266 0.378401
281 1 0.123026 0.374971 0.37475
272 1 0.123039 0.313374 0.43963
270 1 0.186488 0.312108 0.375174
284 1 0.124551 0.437731 0.437119
266 1 0.0600019 0.311265 0.378041
283 1 0.186626 0.371872 0.43301
285 1 0.248719 0.376402 0.374012
274 1 0.312264 0.310918 0.372033
279 1 0.0583413 0.376319 0.437464
485 1 0.123958 0.49807 0.499787
463 1 0.192125 0.497702 0.437625
309 1 0.248907 0.37382 0.501397
461 1 0.123502 0.496984 0.375063
298 1 0.311708 0.313422 0.492145
293 1 0.123969 0.256459 0.499027
262 1 0.309678 0.433482 0.252159
246 1 0.186534 0.307281 0.252718
302 1 0.0607729 0.434657 0.498968
332 1 0.127857 0.438991 0.685788
310 1 0.311081 0.440379 0.502111
296 1 0.123854 0.317593 0.566755
300 1 0.254173 0.305989 0.562562
303 1 0.0589742 0.373438 0.56277
305 1 0.12839 0.373141 0.501212
316 1 0.00123019 0.315448 0.68817
308 1 0.128819 0.435203 0.560827
312 1 0.254239 0.4422 0.56398
327 1 0.0585777 0.375162 0.685108
331 1 0.195709 0.374744 0.684112
322 1 0.315996 0.31346 0.62738
314 1 0.0614045 0.312783 0.624322
311 1 0.317432 0.373846 0.559865
336 1 0.252962 0.440989 0.691014
307 1 0.196981 0.376874 0.563501
294 1 0.185328 0.312727 0.503343
328 1 0.00022354 0.438274 0.686526
353 1 0.127591 0.377685 0.742928
320 1 0.123092 0.309035 0.686553
318 1 0.185655 0.313191 0.62216
324 1 0.250295 0.312929 0.686326
335 1 0.317242 0.378341 0.685854
329 1 0.126497 0.375809 0.626411
333 1 0.252762 0.375362 0.62207
334 1 0.315617 0.434896 0.626527
326 1 0.062415 0.437232 0.627683
330 1 0.190691 0.43873 0.625967
481 1 0.00136019 0.494179 0.503605
346 1 0.30865 0.30903 0.749025
487 1 0.189812 0.500326 0.558761
291 1 0.0633137 0.254275 0.561962
483 1 0.0614413 0.493648 0.564301
354 1 0.189343 0.437513 0.74637
306 1 0.191834 0.435032 0.497502
290 1 0.0622697 0.315221 0.501349
342 1 0.194758 0.312627 0.749541
350 1 0.0603209 0.44239 0.748793
349 1 0.00374632 0.376066 0.749146
357 1 0.254353 0.376519 0.744062
383 1 0.308859 0.373709 0.93923
557 1 0.124944 0.501394 0.875545
363 1 0.0569556 0.253244 0.934569
373 1 0.00263375 0.378312 0.872466
194 1 0.0621563 0.314734 0.997114
539 1 0.310667 0.500029 0.814887
339 1 0.063816 0.249817 0.811406
205 1 0.00072727 0.379039 0.998134
384 1 0.251865 0.438436 0.939439
378 1 0.187501 0.437144 0.876236
348 1 0.251189 0.31681 0.810106
370 1 0.308475 0.312051 0.878887
351 1 0.0611579 0.377586 0.810897
362 1 0.0643727 0.311294 0.872344
344 1 0.127234 0.311221 0.807277
355 1 0.188799 0.375124 0.809388
374 1 0.0633496 0.439028 0.87312
360 1 0.24799 0.439301 0.810012
381 1 0.249919 0.375541 0.878009
359 1 0.315715 0.375517 0.811307
356 1 0.126286 0.437903 0.812435
379 1 0.190133 0.379061 0.941342
372 1 0.249835 0.309069 0.937962
382 1 0.314351 0.435362 0.874545
366 1 0.190636 0.312043 0.869817
375 1 0.0658746 0.374919 0.932476
368 1 0.126384 0.319293 0.935991
377 1 0.129412 0.376466 0.869449
380 1 0.127896 0.439306 0.940477
343 1 0.193359 0.254131 0.811515
369 1 0.249932 0.250476 0.873916
367 1 0.189034 0.251422 0.93378
376 1 0.00166574 0.438371 0.937264
563 1 0.309786 0.500624 0.935129
209 1 0.125274 0.376876 1.00143
340 1 0.00139527 0.31571 0.812615
559 1 0.189807 0.498609 0.938255
535 1 0.189527 0.498354 0.813255
385 1 0.000634339 0.500444 0.998109
531 1 0.0609809 0.498776 0.815271
214 1 0.307746 0.434912 0.999616
197 1 0.127273 0.25083 0.995366
338 1 0.0610157 0.313267 0.749278
358 1 0.317234 0.437296 0.752536
388 1 5.87315e-05 0.565807 0.0683492
392 1 0.12244 0.562771 0.0606175
403 1 0.188363 0.624835 0.0629917
412 1 0.000269091 0.55942 0.184858
400 1 0.0054624 0.690687 0.0638664
394 1 0.310172 0.561683 0.000666036
399 1 0.0615175 0.624033 0.0611472
390 1 0.185118 0.560493 -0.000219838
387 1 0.0619126 0.50396 0.0626997
404 1 0.127297 0.690649 0.0585802
411 1 0.0618486 0.502296 0.183176
428 1 0.122762 0.685752 0.187276
431 1 0.3111 0.62722 0.188589
397 1 0.000615388 0.626372 -0.000605961
432 1 0.25119 0.692341 0.185662
410 1 0.0647418 0.565976 0.12596
414 1 0.186778 0.566475 0.124122
396 1 0.251918 0.565099 0.0639101
426 1 0.188581 0.690312 0.121702
429 1 0.252266 0.630418 0.123412
425 1 0.12609 0.627513 0.121752
408 1 0.252729 0.689537 0.0552838
407 1 0.310539 0.627384 0.0629386
420 1 0.250564 0.559906 0.185626
422 1 0.061771 0.685975 0.126908
430 1 0.312713 0.691198 0.120048
423 1 0.0658465 0.618933 0.190743
416 1 0.124677 0.562634 0.186421
418 1 0.30918 0.564449 0.125839
427 1 0.189693 0.625317 0.186949
421 1 0.00152533 0.625936 0.129967
445 1 -0.000309653 0.621669 0.247802
415 1 0.187824 0.499633 0.187699
603 1 0.0639444 0.751011 0.18477
391 1 0.189549 0.503011 0.0679414
405 1 0.243975 0.622587 -0.000411497
393 1 0.253466 0.500958 0.00114867
438 1 0.187 0.563149 0.249689
450 1 0.18836 0.691058 0.248143
453 1 0.251453 0.622931 0.249485
449 1 0.125528 0.624018 0.246991
439 1 0.185246 0.502207 0.312381
486 1 0.186123 0.565248 0.496672
440 1 0.118527 0.565851 0.313618
475 1 0.189531 0.624623 0.436081
442 1 0.311766 0.560775 0.250932
476 1 0.125064 0.682154 0.43744
657 1 0.253853 0.748003 0.370656
447 1 0.0577521 0.626479 0.310436
501 1 0.248852 0.622081 0.500964
451 1 0.187466 0.61958 0.31155
479 1 0.31673 0.625651 0.441017
452 1 0.128791 0.686379 0.3124
477 1 0.250441 0.626124 0.380751
468 1 0.252435 0.562395 0.437233
474 1 0.188163 0.684379 0.376838
462 1 0.190572 0.558289 0.37665
467 1 0.314899 0.501379 0.435477
458 1 0.0600296 0.558935 0.376974
473 1 0.128579 0.625499 0.374088
444 1 0.250545 0.562474 0.317253
455 1 0.314896 0.625656 0.310212
456 1 0.246807 0.68452 0.311165
470 1 0.062059 0.686398 0.377521
478 1 0.313668 0.683595 0.376597
655 1 0.184656 0.747969 0.436986
480 1 0.254946 0.684776 0.444198
459 1 0.0633691 0.499608 0.439562
471 1 0.0598785 0.621694 0.444122
464 1 0.123973 0.56362 0.436336
466 1 0.317089 0.565913 0.373576
653 1 0.123931 0.745026 0.378908
635 1 0.315593 0.749835 0.314699
681 1 0.25209 0.750814 0.498136
627 1 0.0640009 0.748639 0.308399
631 1 0.184379 0.746229 0.318209
659 1 0.317977 0.74588 0.433462
494 1 0.0612055 0.688258 0.500134
489 1 0.251616 0.499713 0.497802
498 1 0.184617 0.687767 0.496342
434 1 0.0608089 0.559176 0.251517
441 1 0.250519 0.501477 0.249837
446 1 0.0627034 0.685855 0.251694
454 1 0.311196 0.68852 0.252523
520 1 0.00252734 0.686204 0.684371
511 1 0.191322 0.496691 0.686769
515 1 0.314466 0.501596 0.686021
491 1 0.315247 0.500047 0.563353
518 1 0.0637924 0.687876 0.626204
527 1 0.312798 0.625257 0.690319
496 1 0.000193219 0.683133 0.564426
492 1 0.251436 0.560593 0.562571
495 1 0.0622826 0.622803 0.563854
503 1 0.315909 0.620329 0.563964
507 1 0.0639957 0.503895 0.683778
533 1 0.12383 0.502232 0.748145
500 1 0.123936 0.687496 0.557351
490 1 0.314155 0.562871 0.500858
701 1 0.129609 0.750293 0.622742
523 1 0.190806 0.626593 0.684258
522 1 0.188264 0.690607 0.624864
528 1 0.250604 0.690052 0.686051
488 1 0.126481 0.558736 0.562593
510 1 0.188862 0.565379 0.624432
514 1 0.318718 0.563091 0.625641
499 1 0.186838 0.627886 0.563572
525 1 0.250282 0.629487 0.627554
504 1 0.250382 0.687054 0.560667
519 1 0.0638148 0.624329 0.689559
512 1 0.128613 0.566784 0.687129
524 1 0.126764 0.692457 0.685863
526 1 0.314333 0.689438 0.626285
516 1 0.248731 0.562108 0.684765
506 1 0.0642976 0.558256 0.620757
521 1 0.123929 0.628704 0.623536
484 1 0.000286777 0.55826 0.56485
513 1 0.251356 0.501554 0.624868
509 1 0.126312 0.499208 0.624571
493 1 -0.000133722 0.620566 0.504524
497 1 0.125155 0.623203 0.501455
517 1 0.00341939 0.622779 0.629108
697 1 0.002 0.74955 0.621894
482 1 0.0630125 0.560309 0.503925
707 1 0.313259 0.750295 0.687468
675 1 0.0659305 0.749396 0.562276
542 1 0.062984 0.688812 0.748377
502 1 0.313617 0.688825 0.501535
546 1 0.190256 0.689002 0.745412
721 1 0.000957841 0.748917 0.747997
534 1 0.188671 0.560572 0.748201
545 1 0.126934 0.630121 0.749194
536 1 0.121868 0.560889 0.812283
555 1 0.0627012 0.505449 0.938056
553 1 0.0030474 0.505687 0.877797
561 1 0.249911 0.500288 0.874927
550 1 0.312696 0.683879 0.749808
576 1 0.250142 0.684761 0.938537
543 1 0.060712 0.625951 0.808298
547 1 0.188109 0.629594 0.811404
551 1 0.308526 0.621515 0.809811
548 1 0.126955 0.691 0.812099
560 1 0.125148 0.566549 0.934308
571 1 0.186486 0.626465 0.938674
755 1 0.30918 0.748553 0.935497
554 1 0.0593797 0.567611 0.874471
538 1 0.317921 0.561413 0.747694
564 1 0.246076 0.564239 0.935309
540 1 0.24842 0.56055 0.811556
573 1 0.243854 0.628608 0.871056
562 1 0.314299 0.564614 0.874844
568 1 0.00347901 0.689421 0.936046
569 1 0.123557 0.622756 0.871798
552 1 0.249516 0.684079 0.814087
406 1 0.315013 0.69027 0.999522
386 1 0.0608361 0.565295 0.997375
574 1 0.311766 0.682916 0.875765
567 1 0.0631451 0.629346 0.93493
558 1 0.185419 0.558367 0.873288
575 1 0.310759 0.625972 0.941634
572 1 0.125997 0.688928 0.937046
570 1 0.187441 0.690199 0.878994
566 1 0.0667128 0.687378 0.869242
401 1 0.12405 0.630374 0.999591
398 1 0.0676792 0.694363 0.997667
723 1 0.063004 0.751117 0.813052
753 1 0.248799 0.749901 0.875632
549 1 0.246175 0.61936 0.749697
745 1 0.00148298 0.749797 0.873753
402 1 0.185536 0.685478 0.996577
389 1 0.125241 0.502454 0.997953
537 1 0.252362 0.49966 0.75403
729 1 0.253017 0.74946 0.753063
530 1 0.0596824 0.563004 0.752124
611 1 0.31565 0.751158 0.18311
586 1 0.309531 0.811854 0.000717959
584 1 0.129746 0.810896 0.060957
587 1 0.314013 0.752693 0.0638044
595 1 0.190144 0.876173 0.0598131
588 1 0.250039 0.8159 0.0575192
591 1 0.0587654 0.875495 0.0595444
605 1 0.129153 0.751528 0.125366
620 1 0.122871 0.936484 0.186463
27 1 0.0595847 0.998713 0.187203
602 1 0.0683232 0.813414 0.123151
623 1 0.311243 0.879019 0.187564
606 1 0.188717 0.815947 0.119454
617 1 0.125512 0.879552 0.119211
621 1 0.246732 0.875708 0.127852
614 1 0.0613215 0.933978 0.121258
600 1 0.249383 0.936994 0.0584791
599 1 0.312019 0.873056 0.0628772
596 1 0.12758 0.936821 0.0551019
29 1 0.119735 0.999547 0.123467
622 1 0.312028 0.937463 0.12358
610 1 0.312854 0.817108 0.126183
612 1 0.251057 0.815079 0.1863
608 1 0.122462 0.816651 0.187557
624 1 0.251086 0.940089 0.188529
615 1 0.0614301 0.879118 0.186747
618 1 0.190322 0.940303 0.12576
619 1 0.183026 0.877997 0.186075
609 1 0.250902 0.754399 0.121919
583 1 0.191718 0.751222 0.0612721
607 1 0.183529 0.75389 0.186689
579 1 0.0655542 0.751793 0.0654895
630 1 0.186466 0.817102 0.245668
633 1 0.250607 0.750922 0.248742
629 1 0.124794 0.752556 0.248778
31 1 0.183745 0.997256 0.183515
641 1 0.125032 0.875658 0.249526
634 1 0.314032 0.812631 0.247884
642 1 0.184418 0.940947 0.250001
590 1 0.058921 0.940233 -0.00127184
598 1 0.317024 0.93926 -0.000406257
578 1 0.0603713 0.810594 -0.000245814
7 1 0.18651 0.997849 0.064113
592 1 -0.000484603 0.936993 0.0612255
613 1 -0.000893504 0.869104 0.12527
601 1 0.00226808 0.751368 0.124543
637 1 0.00177684 0.873861 0.249143
645 1 0.247332 0.877428 0.244347
581 1 0.125014 0.753486 0.00217106
686 1 0.0578136 0.934599 0.496711
652 1 0.00265986 0.809446 0.437146
628 1 0.0017554 0.813606 0.313386
651 1 0.0625175 0.748992 0.43977
646 1 0.3074 0.937314 0.252729
79 1 0.185719 0.995843 0.434547
647 1 0.316113 0.874765 0.313007
682 1 0.313624 0.810611 0.497167
672 1 0.249765 0.934455 0.43792
648 1 0.248392 0.936892 0.313644
678 1 0.190394 0.81488 0.495873
658 1 0.315376 0.811034 0.374158
639 1 0.0611025 0.875857 0.314291
650 1 0.0681276 0.809676 0.375649
632 1 0.127718 0.810957 0.309681
636 1 0.249698 0.810841 0.310645
662 1 0.0609436 0.936706 0.37531
643 1 0.188574 0.872782 0.309305
669 1 0.250384 0.874056 0.369081
671 1 0.312827 0.872077 0.435073
644 1 0.125858 0.93422 0.313822
649 1 0.00182405 0.753607 0.372911
656 1 0.123695 0.810184 0.437458
654 1 0.186821 0.813428 0.376084
665 1 0.124387 0.871886 0.376923
667 1 0.190531 0.874548 0.434148
660 1 0.25122 0.807619 0.434411
663 1 0.0618521 0.872934 0.436133
668 1 0.124324 0.935122 0.434476
666 1 0.187363 0.933636 0.374756
670 1 0.313172 0.936318 0.376278
53 1 0.119652 0.997 0.254706
693 1 0.247167 0.877225 0.497411
638 1 0.0637787 0.934269 0.254146
75 1 0.0579516 0.997115 0.439387
694 1 0.316497 0.935141 0.497054
77 1 0.123528 0.995288 0.374272
83 1 0.315468 0.995153 0.437105
690 1 0.188092 0.935976 0.496867
689 1 0.127176 0.8725 0.495407
626 1 0.0600423 0.813126 0.251988
680 1 0.128254 0.812733 0.562237
699 1 0.064926 0.754731 0.682487
684 1 0.25386 0.814142 0.557938
700 1 0.00418557 0.809854 0.685713
687 1 0.0622753 0.873207 0.559684
720 1 0.247922 0.936951 0.684348
691 1 0.186717 0.873017 0.564256
705 1 0.248484 0.752494 0.621704
722 1 0.0593716 0.816269 0.748136
696 1 0.252236 0.934903 0.561995
695 1 0.312277 0.87563 0.560416
716 1 0.122959 0.934309 0.686064
692 1 0.123083 0.938422 0.557105
703 1 0.190391 0.756363 0.687268
719 1 0.318031 0.871478 0.690916
683 1 0.311412 0.752376 0.558086
107 1 0.31772 0.996584 0.5621
698 1 0.0662776 0.814077 0.619563
702 1 0.188492 0.814665 0.627339
706 1 0.312311 0.814852 0.624858
713 1 0.12387 0.877297 0.623416
710 1 0.0607518 0.936671 0.618171
714 1 0.189136 0.934891 0.621921
717 1 0.25218 0.873404 0.625787
718 1 0.310767 0.936035 0.625289
704 1 0.122122 0.817289 0.687925
711 1 0.0644273 0.87582 0.684518
715 1 0.189338 0.875746 0.68957
708 1 0.254591 0.812794 0.691035
725 1 0.125056 0.752954 0.748339
712 1 0.00153503 0.939857 0.683096
103 1 0.18938 0.995744 0.564744
123 1 0.0612808 0.999908 0.687026
676 1 1.70639e-05 0.814622 0.562201
125 1 0.123839 0.994175 0.621122
127 1 0.187368 0.998098 0.682001
679 1 0.194515 0.751128 0.560628
677 1 0.123119 0.752296 0.50028
737 1 0.125837 0.874893 0.750659
674 1 0.0585928 0.811933 0.502407
742 1 0.311641 0.938503 0.751571
149 1 0.127907 0.996478 0.74775
153 1 0.250337 0.999036 0.747179
728 1 0.120472 0.817022 0.811343
749 1 0.127362 0.753008 0.871385
732 1 0.25338 0.813461 0.813528
760 1 0.0030348 0.943852 0.9402
739 1 0.189742 0.875671 0.814702
740 1 0.122681 0.93852 0.811878
593 1 0.120983 0.876441 0.996425
758 1 0.061423 0.933004 0.878608
744 1 0.254603 0.94179 0.815243
746 1 0.0619546 0.81874 0.881051
597 1 0.254244 0.876564 0.998476
766 1 0.31529 0.940125 0.87617
754 1 0.311315 0.809066 0.874637
768 1 0.255733 0.937848 0.935814
761 1 0.129283 0.875726 0.876022
750 1 0.191026 0.814413 0.871886
735 1 0.0606555 0.878632 0.810761
762 1 0.185313 0.940184 0.877316
765 1 0.254593 0.877544 0.875112
743 1 0.317825 0.88064 0.810592
764 1 0.124131 0.940142 0.937408
741 1 0.253934 0.876431 0.749535
594 1 0.188345 0.933323 0.997749
747 1 0.0661244 0.74957 0.934447
767 1 0.31553 0.875375 0.937881
759 1 0.0579135 0.876285 0.940967
763 1 0.18811 0.873323 0.93964
752 1 0.12614 0.813228 0.941169
756 1 0.250319 0.812312 0.93557
727 1 0.188621 0.752679 0.810149
731 1 0.317203 0.75213 0.813554
173 1 0.126518 0.996622 0.871729
155 1 0.315949 0.998978 0.813557
147 1 0.0595429 0.995866 0.81169
751 1 0.186185 0.752389 0.937461
582 1 0.187906 0.814344 0.998323
585 1 0.250863 0.754179 0.995026
726 1 0.189063 0.813504 0.754115
730 1 0.317151 0.813242 0.753119
738 1 0.182934 0.936852 0.751834
734 1 0.0612839 0.93492 0.749671
776 1 0.498579 0.0643299 0.0633497
953 1 0.501551 0.248504 0.121593
785 1 0.561937 0.125018 0.064745
796 1 0.500751 0.0603955 0.188148
804 1 0.560233 0.188777 0.123931
788 1 0.624768 0.186813 0.0628994
951 1 0.437597 0.248337 0.186948
808 1 0.629521 0.189689 0.188636
772 1 0.382829 0.0618848 0.0647957
802 1 0.379541 0.187366 0.186434
806 1 0.503267 0.188972 0.185345
778 1 0.619814 0.0634578 0.0644872
781 1 0.438659 0.128273 0.058785
790 1 0.43892 0.0629634 0.130665
803 1 0.500519 0.126165 0.124878
782 1 0.376542 0.183465 0.0622507
786 1 0.501094 0.191004 0.0591587
949 1 0.375667 0.248536 0.12616
807 1 0.623668 0.124216 0.124081
794 1 0.56133 0.0604726 0.126549
792 1 0.373997 0.060863 0.194637
799 1 0.377078 0.126225 0.12886
801 1 0.440031 0.12637 0.190291
805 1 0.566435 0.129496 0.187334
798 1 0.626467 0.0664073 0.184751
800 1 0.440232 0.188266 0.126764
931 1 0.435193 0.248852 0.0625975
770 1 0.437034 0.0634682 -0.00269873
797 1 0.623372 -0.00123184 0.126682
957 1 0.628058 0.249553 0.128525
819 1 0.376151 0.126109 0.250277
779 1 0.376988 0.125513 -0.000140094
771 1 0.442345 -0.00045029 0.0635509
795 1 0.562549 0.00164576 0.187678
823 1 0.501197 0.124295 0.249205
977 1 0.623137 0.247251 0.24877
937 1 0.627385 0.248177 0.00120159
812 1 0.377142 0.0635977 0.312658
824 1 0.562573 0.185875 0.251699
831 1 0.436298 0.000257296 0.435689
822 1 0.373039 0.18579 0.313921
821 1 0.441136 0.131006 0.313193
969 1 0.378309 0.247165 0.248169
844 1 0.561436 0.192848 0.378298
826 1 0.500239 0.191114 0.314551
814 1 0.56191 0.0612175 0.249898
842 1 0.374243 0.18847 0.433862
846 1 0.498044 0.188035 0.436162
830 1 0.438566 0.067443 0.371303
816 1 0.504256 0.0598749 0.314847
838 1 0.624276 0.0631191 0.438937
818 1 0.629812 0.0610349 0.314721
839 1 0.373088 0.12528 0.373488
825 1 0.561991 0.121038 0.312294
840 1 0.436861 0.189519 0.375587
843 1 0.500995 0.125643 0.371618
828 1 0.627314 0.185035 0.314827
848 1 0.623533 0.183736 0.435326
834 1 0.565212 0.0579414 0.373803
841 1 0.435825 0.129715 0.438378
836 1 0.502488 0.0636721 0.435063
832 1 0.37379 0.0636345 0.437501
845 1 0.562583 0.122507 0.433884
847 1 0.624804 0.12437 0.377744
835 1 0.564901 0.000790816 0.438606
971 1 0.434116 0.249281 0.315414
810 1 0.437701 0.0629571 0.252452
837 1 0.629098 0.00168532 0.373723
860 1 0.434133 0.188344 0.501185
820 1 0.440295 0.187886 0.250226
863 1 0.498859 0.122818 0.500532
997 1 0.624315 0.248719 0.377613
817 1 0.627136 0.00267037 0.249249
867 1 0.626103 0.131168 0.500776
864 1 0.558973 0.18863 0.498369
850 1 0.436191 0.0637412 0.499245
975 1 0.564769 0.249485 0.314105
849 1 0.378849 0.00200052 0.497526
827 1 0.624135 0.12298 0.251136
973 1 0.50561 0.24837 0.249207
852 1 0.376127 0.0651228 0.565289
875 1 0.558844 0.00125293 0.686068
859 1 0.374228 0.126594 0.503175
888 1 0.626024 0.184376 0.684673
866 1 0.499169 0.189433 0.560181
1017 1 0.623304 0.24777 0.500223
878 1 0.62962 0.0637011 0.686414
885 1 0.564173 0.12531 0.686893
856 1 0.496427 0.0590472 0.561753
858 1 0.628533 0.060828 0.561828
879 1 0.371079 0.121764 0.625895
861 1 0.439106 0.12683 0.565402
883 1 0.497903 0.123355 0.623975
865 1 0.56458 0.131297 0.561021
862 1 0.374482 0.1827 0.567367
880 1 0.435983 0.184152 0.6284
868 1 0.621887 0.19105 0.562042
886 1 0.499142 0.18397 0.68754
870 1 0.438343 0.0624688 0.626238
874 1 0.563778 0.065394 0.623288
872 1 0.377397 0.0653076 0.690623
876 1 0.499656 0.0653833 0.689976
884 1 0.557805 0.187582 0.62454
887 1 0.626943 0.120869 0.621071
882 1 0.372716 0.183205 0.685576
1057 1 0.623762 0.248486 0.744716
881 1 0.438488 0.123864 0.687158
855 1 0.563339 0.00145698 0.563407
1011 1 0.432137 0.247158 0.557724
1031 1 0.436648 0.246892 0.688516
1029 1 0.372682 0.250156 0.625949
1049 1 0.371432 0.248484 0.751097
1035 1 0.560955 0.247631 0.68057
904 1 0.564457 0.185684 0.74834
894 1 0.563976 0.062834 0.748521
900 1 0.434424 0.187635 0.748164
854 1 0.56022 0.0655145 0.504739
892 1 0.37364 0.0656971 0.811528
905 1 0.56695 0.12629 0.813955
903 1 0.500658 0.125699 0.751067
902 1 0.369769 0.187239 0.817129
901 1 0.436397 0.12944 0.80796
911 1 0.439291 0.00321338 0.935607
913 1 0.501117 0.00552597 0.875951
916 1 0.498814 0.0648855 0.937783
890 1 0.436628 0.0603446 0.751217
898 1 0.629598 0.0576726 0.809799
919 1 0.373554 0.126572 0.875957
896 1 0.502304 0.0615525 0.814043
927 1 0.630378 0.124411 0.878224
906 1 0.496148 0.187764 0.816226
922 1 0.374329 0.188581 0.935213
908 1 0.626151 0.187994 0.805368
928 1 0.625598 0.188669 0.940177
925 1 0.563922 0.124078 0.937414
910 1 0.431932 0.0676109 0.876051
926 1 0.49976 0.184717 0.933403
912 1 0.374189 0.0653507 0.940004
921 1 0.437604 0.129364 0.937364
923 1 0.496524 0.120964 0.874118
914 1 0.566396 0.0586889 0.8764
918 1 0.631726 0.0617743 0.934413
920 1 0.435166 0.18617 0.873153
924 1 0.559537 0.183777 0.876921
891 1 0.439024 0.00168979 0.813044
909 1 0.375584 0.000572576 0.874986
783 1 0.503646 0.122471 1.00016
933 1 0.50248 0.2469 0.998929
1077 1 0.626796 0.247093 0.870786
784 1 0.564018 0.185004 1.00066
1055 1 0.56137 0.244643 0.810444
780 1 0.437453 0.192056 0.996729
773 1 0.500173 0.000944961 1.0001
1069 1 0.373426 0.248241 0.874292
774 1 0.563753 0.0625775 0.996644
787 1 0.626263 0.122351 0.995272
769 1 0.381132 -0.00197411 1.00008
1053 1 0.499235 0.246485 0.750559
907 1 0.626934 0.121823 0.752355
899 1 0.368924 0.128646 0.751329
955 1 0.562057 0.253403 0.189448
966 1 0.501887 0.435105 0.183764
944 1 0.564896 0.438507 0.00222535
1097 1 0.628991 0.49888 -0.000650761
1093 1 0.495925 0.496956 0.00202358
941 1 0.438541 0.378983 0.0637587
960 1 0.435633 0.439655 0.124054
948 1 0.625085 0.442506 0.0652729
965 1 0.562457 0.374896 0.190762
961 1 0.440108 0.376449 0.188562
956 1 0.500991 0.310327 0.185804
952 1 0.378674 0.310912 0.19106
938 1 0.628148 0.311441 0.0609714
932 1 0.379123 0.315241 0.0626224
936 1 0.499645 0.312978 0.0608646
959 1 0.380927 0.374359 0.126487
963 1 0.501764 0.373409 0.128072
945 1 0.56386 0.374632 0.0631966
942 1 0.373165 0.436808 0.0667186
946 1 0.502858 0.436789 0.0655547
964 1 0.567717 0.432182 0.129397
968 1 0.630741 0.435582 0.188262
967 1 0.623621 0.373434 0.125349
954 1 0.56604 0.309502 0.125378
950 1 0.441589 0.312387 0.123416
958 1 0.628922 0.314759 0.186609
962 1 0.375284 0.436975 0.189488
935 1 0.566597 0.250858 0.0638223
1095 1 0.561096 0.499507 0.0637435
1115 1 0.563337 0.498142 0.1892
1113 1 0.501622 0.497183 0.124202
1089 1 0.370255 0.498724 0.000645254
1111 1 0.436404 0.499074 0.184285
974 1 0.561909 0.312811 0.251252
987 1 0.624216 0.377714 0.248222
984 1 0.564531 0.436978 0.248004
930 1 0.436807 0.308672 0.00075795
943 1 0.502728 0.378031 0.00293069
983 1 0.500496 0.371588 0.248676
991 1 0.439757 0.250419 0.43531
1013 1 0.495283 0.251693 0.498403
993 1 0.499749 0.254865 0.378112