ITEM: TIMESTEP
100000
ITEM: NUMBER OF ATOMS
2048
ITEM: BOX BOUNDS pp pp pp
0.0000000000000000e+00 1.1950412657485773e+01
0.0000000000000000e+00 1.1950412657485773e+01
0.0000000000000000e+00 1.1950412657485773e+01
ITEM: ATOMS id type xs ys zs
8 1 0.125718 0.0717498 0.0626615
46 1 0.31032 0.199205 0.127782
27 1 0.0632771 0.00680681 0.175379
15 1 0.0608615 0.130771 0.0574933
12 1 0.242315 0.0774866 0.0634718
53 1 0.122081 0.0010199 0.237802
19 1 0.181876 0.139099 0.0717456
32 1 0.126419 0.0673848 0.181113
23 1 0.30482 0.138869 0.0670062
43 1 0.188471 0.130007 0.181683
20 1 0.12537 0.200681 0.0634979
35 1 0.31476 -0.00358066 0.194375
17 1 0.131097 0.135708 -0.000131958
42 1 0.18327 0.204912 0.13018
44 1 0.135529 0.194814 0.194255
24 1 0.242503 0.19636 0.0591761
38 1 0.0496557 0.193636 0.10654
47 1 0.304149 0.131947 0.184352
7 1 0.191899 0.00944967 0.0573821
3 1 0.0679749 0.00222225 0.0615744
36 1 0.247342 0.0693598 0.184487
28 1 0.00597742 0.0683186 0.178696
54 1 0.197025 0.0565841 0.242715
48 1 0.247393 0.192778 0.180383
26 1 0.0643527 0.0655123 0.114966
30 1 0.188229 0.0611019 0.123117
45 1 0.253317 0.136342 0.124417
34 1 0.311771 0.0705667 0.115783
39 1 0.0726521 0.129406 0.189956
41 1 0.120259 0.140442 0.122675
49 1 0.0139449 0.00367025 0.242753
65 1 0.133238 0.123579 0.248819
37 1 0.00862794 0.130017 0.118809
6 1 0.185168 0.0788473 0.00605246
11 1 0.326628 0.00668577 0.0715054
21 1 0.248935 0.132579 0.00736704
4 1 -0.0013673 0.0696231 0.0594229
66 1 0.188468 0.186075 0.254358
33 1 0.253908 0.00936144 0.119737
70 1 0.311548 0.196289 0.245976
69 1 0.254499 0.132633 0.25012
14 1 0.0603716 0.194207 0.00225551
219 1 0.0618165 0.25007 0.191976
10 1 0.31836 0.0658753 0.00578992
79 1 0.192291 0.00637587 0.443854
62 1 0.0721158 0.185853 0.248461
55 1 0.18422 -0.00113131 0.298551
59 1 0.311942 0.00395449 0.318802
60 1 0.248765 0.0700492 0.302267
63 1 0.0583244 0.125311 0.314521
95 1 0.319842 0.127452 0.433758
50 1 0.0731334 0.0670055 0.255882
71 1 0.314099 0.13402 0.307871
114 1 0.179116 0.191096 0.495765
247 1 0.192146 0.251834 0.31135
56 1 0.127303 0.0615651 0.321316
80 1 0.127047 0.0668875 0.434345
67 1 0.187743 0.130074 0.308391
82 1 0.317149 0.0755116 0.370982
89 1 0.121947 0.126464 0.368828
72 1 0.243973 0.187457 0.307314
94 1 0.311499 0.182691 0.378823
86 1 0.0651007 0.193016 0.369276
68 1 0.12863 0.186122 0.309426
81 1 0.251018 0.0190931 0.373369
74 1 0.0644256 0.0665498 0.372045
87 1 0.0592163 0.124634 0.429392
78 1 0.185664 0.069413 0.378949
84 1 0.250525 0.0736463 0.432498
91 1 0.187585 0.126742 0.43496
90 1 0.183957 0.191883 0.373275
96 1 0.249183 0.192668 0.435453
93 1 0.241409 0.130443 0.369593
92 1 0.119039 0.188219 0.429141
113 1 0.130148 0.126782 0.494793
77 1 0.134107 0.00150707 0.381091
293 1 0.122225 0.251014 0.493287
98 1 0.0624541 0.0456985 0.492491
51 1 0.0619878 0.00335597 0.31772
289 1 0.00120403 0.250103 0.487295
273 1 0.245528 0.245406 0.370496
52 1 0.0013479 0.0607556 0.301532
85 1 -0.00195809 0.127585 0.370964
106 1 0.321937 0.0729958 0.496677
102 1 0.19174 0.0714983 0.496248
275 1 0.302862 0.249989 0.438418
64 1 0.00786216 0.186312 0.301524
110 1 0.0583267 0.175811 0.494925
58 1 0.310237 0.0676161 0.256026
313 1 0.010473 0.239214 0.620792
105 1 0.260936 0.0203942 0.505223
115 1 0.184937 0.129152 0.557166
108 1 0.253073 0.0687599 0.566706
103 1 0.194401 -0.000290208 0.566077
120 1 0.257315 0.186348 0.565449
128 1 0.128258 0.0630386 0.690802
135 1 0.0607258 0.115343 0.693953
129 1 0.253188 0.00945631 0.619651
104 1 0.13508 0.0647037 0.55838
126 1 0.1849 0.0674016 0.62384
130 1 0.317581 0.0730702 0.62873
111 1 0.065299 0.12316 0.559221
116 1 0.121505 0.18078 0.553812
142 1 0.318514 0.186593 0.635376
315 1 0.0634215 0.244307 0.692894
119 1 0.31608 0.123151 0.561812
136 1 0.00355289 0.187459 0.682367
122 1 0.0799582 0.0597697 0.628276
139 1 0.194053 0.128031 0.683963
141 1 0.257959 0.123149 0.627803
134 1 0.06252 0.176544 0.626642
137 1 0.125397 0.122914 0.631953
138 1 0.177213 0.182076 0.618292
143 1 0.322495 0.127692 0.691849
140 1 0.123928 0.187624 0.684241
100 1 0.0174109 0.055716 0.559037
125 1 0.134892 0.00223313 0.625454
144 1 0.25235 0.186282 0.693792
319 1 0.184332 0.244329 0.683816
132 1 0.245252 0.0558364 0.688077
133 1 0.0151931 0.106769 0.620788
150 1 0.188362 0.0685057 0.748301
323 1 0.315319 0.245304 0.689843
131 1 0.315036 0.00314042 0.694181
317 1 0.122303 0.241931 0.624336
321 1 0.241166 0.234416 0.629447
124 1 0.00193702 0.054027 0.688798
165 1 0.253297 0.12391 0.748551
107 1 0.318722 0.013628 0.56762
146 1 0.0658353 0.0438247 0.746527
337 1 -0.00307254 0.244093 0.744593
117 1 0.245191 0.140976 0.503695
118 1 0.319222 0.185112 0.510402
341 1 0.133961 0.239648 0.751966
190 1 0.313967 0.185158 0.87936
162 1 0.187514 0.18241 0.746489
175 1 0.189247 0.0177866 0.951097
181 1 -0.00121667 0.11298 0.87677
164 1 0.125371 0.181121 0.815244
163 1 0.185004 0.126291 0.815982
168 1 0.251506 0.181996 0.818856
148 1 -0.0011168 0.0587346 0.810936
152 1 0.117421 0.056581 0.818444
339 1 0.0587063 0.249793 0.80726
174 1 0.18638 0.0700575 0.891943
178 1 0.313695 0.0661059 0.8822
170 1 0.0589258 0.0482681 0.872978
185 1 0.126033 0.121756 0.877803
156 1 0.249432 0.0566108 0.817771
167 1 0.309849 0.126793 0.811385
159 1 0.061855 0.114878 0.821318
189 1 0.245663 0.115894 0.87357
182 1 0.0646029 0.180665 0.870069
186 1 0.179997 0.187432 0.885719
179 1 0.326245 0.00531777 0.955796
173 1 0.130186 0.00166653 0.890342
176 1 0.125378 0.0655778 0.941945
155 1 0.321468 0.00438286 0.818709
183 1 0.0606226 0.118199 0.942853
180 1 0.255834 0.0736651 0.951567
191 1 0.305257 0.136057 0.942792
187 1 0.192287 0.132834 0.943303
192 1 0.249105 0.194056 0.934746
188 1 0.119012 0.19003 0.942977
345 1 0.248335 0.241103 0.75945
177 1 0.241409 0.00974628 0.885204
161 1 0.108376 0.108919 0.755405
343 1 0.18981 0.237156 0.822476
193 1 -0.00124057 0.245082 0.992918
158 1 0.0608408 0.185475 0.747614
369 1 0.253301 0.245966 0.872953
347 1 0.318793 0.2416 0.817395
184 1 0.00872194 0.17854 0.928341
361 1 0.00577 0.244168 0.871913
153 1 0.256029 0.00157807 0.756171
157 1 0.0093154 0.119956 0.758327
363 1 0.0594634 0.24785 0.932495
365 1 0.12362 0.240181 0.86919
2 1 0.056778 0.056805 0.997872
18 1 0.190067 0.19571 0.997237
172 1 0.00233362 0.0570918 0.928933
22 1 0.313635 0.200987 0.998057
154 1 0.310718 0.0640746 0.754054
166 1 0.311879 0.192142 0.758439
225 1 0.252447 0.251368 0.120707
208 1 0.00208196 0.450636 0.0572231
228 1 0.252862 0.323177 0.18564
220 1 0.00171932 0.324983 0.179609
196 1 0.00413567 0.321821 0.0554038
417 1 0.258502 0.498197 0.13115
231 1 0.0719268 0.382881 0.191385
211 1 0.186036 0.381356 0.0656544
389 1 0.138725 0.488536 0.00383025
215 1 0.316182 0.372661 0.0708601
212 1 0.121144 0.438479 0.0686246
227 1 0.311232 0.253586 0.190921
200 1 0.125253 0.320754 0.0520507
218 1 0.0658118 0.317493 0.126154
204 1 0.251753 0.311694 0.0642902
207 1 0.0610612 0.384114 0.0635888
234 1 0.193491 0.442925 0.120169
236 1 0.130411 0.444017 0.19398
238 1 0.308932 0.433555 0.13076
216 1 0.247443 0.434494 0.0495292
223 1 0.192039 0.258763 0.189
415 1 0.196971 0.498537 0.191769
239 1 0.315721 0.376449 0.187148
226 1 0.312043 0.311905 0.124407
262 1 0.299147 0.442357 0.23864
224 1 0.118252 0.310844 0.197897
222 1 0.17537 0.317436 0.12298
249 1 0.258268 0.259741 0.249629
233 1 0.131209 0.381964 0.122462
235 1 0.17995 0.381668 0.189125
237 1 0.248645 0.377712 0.117209
413 1 0.13239 0.492 0.125923
230 1 0.061503 0.440936 0.134232
240 1 0.239953 0.43164 0.180785
195 1 0.0634339 0.261147 0.0635206
199 1 0.188985 0.259148 0.058027
203 1 0.313756 0.262036 0.0593771
261 1 0.244424 0.380792 0.244357
217 1 0.00536722 0.259407 0.129477
433 1 -0.000749004 0.496037 0.238331
221 1 0.118462 0.253841 0.129212
250 1 0.30909 0.326414 0.243897
197 1 0.129878 0.257749 0.00625072
277 1 0.00865163 0.37914 0.37784
288 1 0.250696 0.433901 0.441082
280 1 0.0180171 0.439686 0.430678
252 1 0.248269 0.311742 0.326363
263 1 0.312854 0.382269 0.323675
276 1 0.249873 0.322739 0.43778
255 1 0.0705633 0.371908 0.307541
251 1 0.313805 0.266928 0.312465
286 1 0.313408 0.447143 0.381735
245 1 0.133414 0.24822 0.259375
260 1 0.13424 0.431994 0.313033
287 1 0.311844 0.379496 0.444448
264 1 0.247411 0.440055 0.320063
301 1 0.00142412 0.378114 0.500646
465 1 0.244081 0.495525 0.38085
274 1 0.310044 0.312307 0.381512
266 1 0.0586865 0.310407 0.365618
248 1 0.128836 0.315876 0.306164
259 1 0.19881 0.37694 0.312205
258 1 0.199318 0.449301 0.256585
246 1 0.193521 0.316569 0.256799
282 1 0.183887 0.435879 0.376976
285 1 0.242075 0.37923 0.381112
284 1 0.131369 0.435628 0.438654
283 1 0.180233 0.370185 0.436701
271 1 0.177612 0.249309 0.429804
467 1 0.308887 0.501507 0.448275
272 1 0.121783 0.316178 0.441301
269 1 0.114656 0.253629 0.359027
279 1 0.0607463 0.373193 0.446761
270 1 0.179679 0.304825 0.369334
278 1 0.0787888 0.435153 0.370698
281 1 0.121262 0.362666 0.376148
463 1 0.188676 0.497706 0.454787
243 1 0.0570499 0.251483 0.302802
242 1 0.0484971 0.314146 0.24959
294 1 0.180063 0.312514 0.495159
268 1 0.00485153 0.314212 0.434317
257 1 0.12781 0.374884 0.249034
267 1 0.064751 0.255804 0.427604
290 1 0.0624666 0.309828 0.496824
253 1 0.00646249 0.388136 0.254138
297 1 0.243198 0.252536 0.491585
254 1 0.078737 0.442563 0.25952
298 1 0.301823 0.311937 0.512398
336 1 0.26075 0.495548 0.630314
489 1 0.257959 0.490876 0.508455
353 1 0.125182 0.372539 0.744071
358 1 0.311308 0.432419 0.748412
307 1 0.190824 0.369559 0.562977
300 1 0.237138 0.305634 0.562584
292 1 0.00282231 0.320982 0.555926
303 1 0.0676401 0.366799 0.557753
299 1 0.312808 0.245373 0.573043
312 1 0.254559 0.430323 0.571328
311 1 0.316346 0.373398 0.563455
338 1 0.0596323 0.304075 0.748653
308 1 0.127275 0.430909 0.576265
354 1 0.263841 0.43184 0.68249
296 1 0.130066 0.306793 0.564502
318 1 0.189812 0.301703 0.629369
322 1 0.318848 0.318297 0.618693
332 1 0.119069 0.433655 0.685282
333 1 0.255163 0.366356 0.623727
334 1 0.317862 0.434477 0.619875
507 1 0.0670563 0.498844 0.690852
335 1 0.319738 0.375196 0.677359
357 1 0.259446 0.3599 0.737744
314 1 0.0615978 0.30748 0.637339
320 1 0.129396 0.309483 0.691602
324 1 0.263672 0.304131 0.679671
327 1 0.049802 0.36806 0.694149
329 1 0.120344 0.366481 0.631347
331 1 0.194448 0.36387 0.681411
326 1 0.0605365 0.429959 0.626903
330 1 0.199965 0.429822 0.634179
483 1 0.0522943 0.497094 0.575049
487 1 0.182804 0.495306 0.574109
302 1 0.0574063 0.439434 0.505457
485 1 0.12766 0.481195 0.508531
310 1 0.314186 0.433659 0.505609
325 1 -0.00154375 0.364541 0.627738
535 1 0.19084 0.437374 0.735028
491 1 0.318991 0.501902 0.560336
295 1 0.179027 0.244568 0.568526
291 1 0.0724658 0.257104 0.55692
342 1 0.202046 0.307271 0.739001
306 1 0.196268 0.434419 0.50618
305 1 0.127262 0.382375 0.506339
537 1 0.255449 0.49608 0.739934
309 1 0.251961 0.373025 0.505509
364 1 0.00372934 0.305673 0.92348
194 1 0.0578633 0.301739 0.992467
352 1 -0.000417657 0.448847 0.81223
344 1 0.128332 0.311642 0.792699
348 1 0.244486 0.297572 0.813455
359 1 0.323115 0.378113 0.814364
206 1 0.0592566 0.447395 0.990558
213 1 0.256761 0.372059 0.995864
384 1 0.242457 0.432136 0.936476
371 1 0.307326 0.252291 0.933796
360 1 0.250376 0.428256 0.815565
380 1 0.124108 0.435437 0.928063
362 1 0.0630271 0.310027 0.865474
533 1 0.131099 0.499174 0.755759
198 1 0.186214 0.316544 0.994933
377 1 0.116188 0.38367 0.868794
366 1 0.170515 0.311745 0.861893
370 1 0.309317 0.305301 0.869945
351 1 0.0688704 0.370789 0.806552
356 1 0.126647 0.445339 0.819261
355 1 0.183851 0.37532 0.807861
382 1 0.318119 0.438943 0.873451
375 1 0.0544638 0.380273 0.930029
367 1 0.191426 0.261074 0.93069
346 1 0.312257 0.310818 0.769529
201 1 0.254187 0.252835 1.00057
209 1 0.111236 0.37808 0.983378
379 1 0.180789 0.365586 0.925413
372 1 0.245052 0.318784 0.933316
374 1 0.0587616 0.442353 0.870138
381 1 0.253683 0.366776 0.864247
378 1 0.191032 0.429665 0.867437
368 1 0.122372 0.307063 0.940678
349 1 0.00356307 0.381634 0.756711
383 1 0.310455 0.386652 0.931244
214 1 0.315847 0.445941 1.00256
534 1 0.193765 0.499111 0.810062
210 1 0.18524 0.415281 0.993339
561 1 0.245418 0.495576 0.877889
202 1 0.319766 0.31407 0.997528
350 1 0.0622882 0.437032 0.759401
412 1 0.00370005 0.565603 0.182682
424 1 0.00958294 0.686201 0.193426
428 1 0.127783 0.681509 0.186517
423 1 0.0613805 0.626783 0.183277
420 1 0.248366 0.570634 0.187668
416 1 0.13459 0.569578 0.189431
450 1 0.191082 0.683122 0.244199
419 1 0.308896 0.508934 0.190793
398 1 0.06772 0.69653 0.00832594
401 1 0.143159 0.639208 -0.00437971
386 1 0.074724 0.570076 0.00405872
426 1 0.198035 0.689803 0.124823
411 1 0.0601092 0.505488 0.187118
399 1 0.0680014 0.62844 0.0676079
410 1 0.0618407 0.560986 0.120376
392 1 0.130353 0.560678 0.067781
396 1 0.248307 0.561732 0.0617793
403 1 0.192768 0.634335 0.0610844
408 1 0.256998 0.684303 0.064586
407 1 0.312785 0.62308 0.0673923
387 1 0.0653215 0.504508 0.0504941
404 1 0.125332 0.693254 0.0641671
431 1 0.312973 0.624824 0.196791
603 1 0.0715885 0.749726 0.183353
430 1 0.311327 0.696275 0.132185
414 1 0.188521 0.566181 0.126618
432 1 0.257501 0.686936 0.200799
427 1 0.189996 0.632543 0.181115
429 1 0.260985 0.632876 0.125798
418 1 0.315261 0.566015 0.134053
422 1 0.0624974 0.697586 0.115003
425 1 0.129572 0.623499 0.123089
434 1 0.0650749 0.5709 0.240585
441 1 0.248749 0.515416 0.25306
611 1 0.312899 0.752401 0.191111
587 1 0.318602 0.748893 0.0709387
402 1 0.187419 0.70181 0.00653922
391 1 0.19566 0.500991 0.0674649
442 1 0.312034 0.562102 0.250196
629 1 0.129172 0.756054 0.243179
395 1 0.318227 0.510986 0.0598942
437 1 0.136948 0.50417 0.244824
393 1 0.240567 0.503579 -0.000322184
405 1 0.261053 0.625848 -0.000520571
472 1 0.00747008 0.690142 0.434463
438 1 0.189841 0.569124 0.257043
451 1 0.190473 0.631341 0.310321
445 1 0.00416107 0.629565 0.248667
655 1 0.181368 0.747468 0.447073
446 1 0.0613037 0.68735 0.25459
476 1 0.119283 0.686094 0.448966
449 1 0.130722 0.629534 0.258155
502 1 0.302394 0.688373 0.490847
453 1 0.244094 0.621292 0.248068
478 1 0.313459 0.69721 0.376132
440 1 0.130714 0.557528 0.317554
444 1 0.253991 0.564128 0.31397
460 1 -0.00119242 0.572621 0.448076
439 1 0.191108 0.499249 0.31653
479 1 0.310581 0.633136 0.434252
462 1 0.192356 0.568206 0.372997
455 1 0.316985 0.619848 0.313281
447 1 0.0709815 0.614951 0.312305
452 1 0.13537 0.69664 0.303659
456 1 0.249448 0.685203 0.306305
480 1 0.244965 0.690301 0.434919
625 1 0.000801874 0.750409 0.253409
464 1 0.123261 0.572722 0.444852
468 1 0.256175 0.569992 0.443069
649 1 0.00451945 0.751188 0.370588
458 1 0.0719944 0.560641 0.38169
475 1 0.183476 0.633223 0.435111
466 1 0.301159 0.566613 0.380974
470 1 0.061357 0.68173 0.372495
471 1 0.0589993 0.625492 0.432298
473 1 0.132211 0.634486 0.369383
474 1 0.194813 0.689224 0.368012
477 1 0.250329 0.628406 0.373166
457 1 0.00109446 0.511509 0.386172
459 1 0.0601252 0.505239 0.444416
461 1 0.134925 0.507678 0.386482
435 1 0.0675484 0.50731 0.304547
436 1 0.00395947 0.557736 0.314756
501 1 0.237411 0.636017 0.499565
443 1 0.312083 0.499892 0.311325
633 1 0.255158 0.745894 0.253696
627 1 0.0661108 0.744422 0.308673
657 1 0.252396 0.748953 0.37274
486 1 0.189828 0.56628 0.49744
494 1 0.0556285 0.682825 0.499202
454 1 0.314057 0.68797 0.26295
705 1 0.249777 0.749066 0.62137
526 1 0.309768 0.693868 0.626269
484 1 0.00456777 0.56955 0.576651
515 1 0.318736 0.507442 0.68585
488 1 0.12433 0.565086 0.567498
499 1 0.18845 0.623953 0.569823
490 1 0.314232 0.566549 0.497883
505 1 0.000388697 0.507885 0.635703
509 1 0.120057 0.500355 0.625383
510 1 0.123198 0.567172 0.687321
527 1 0.309758 0.610853 0.68177
500 1 0.115101 0.684903 0.571125
528 1 0.253732 0.695358 0.683926
504 1 0.250266 0.685602 0.560237
520 1 -0.000648624 0.689845 0.693974
513 1 0.183347 0.561704 0.626274
492 1 0.250404 0.559828 0.556576
519 1 0.0531712 0.630811 0.698685
495 1 0.0624869 0.623634 0.566394
514 1 0.309778 0.557838 0.618787
525 1 0.255257 0.626866 0.623255
493 1 -0.000183079 0.623938 0.516255
503 1 0.30741 0.624741 0.560002
701 1 0.12813 0.748187 0.630235
518 1 0.0606635 0.684437 0.634959
538 1 0.315353 0.560697 0.747969
516 1 0.249063 0.555466 0.679605
522 1 0.191859 0.688479 0.632789
506 1 0.0659269 0.565917 0.627017
523 1 0.190184 0.623189 0.683348
524 1 0.127241 0.685253 0.688125
521 1 0.127384 0.624193 0.625008
497 1 0.12287 0.620516 0.509715
498 1 0.173137 0.685192 0.516181
482 1 0.0596295 0.557977 0.515896
511 1 0.1811 0.507153 0.685748
530 1 0.0659859 0.56691 0.749071
529 1 -3.45788e-05 0.512885 0.732521
512 1 0.185717 0.567132 0.748233
549 1 0.257297 0.623324 0.743731
679 1 0.194234 0.752329 0.566713
703 1 0.182415 0.749441 0.698419
542 1 0.0654405 0.700537 0.742609
546 1 0.197174 0.684432 0.747676
545 1 0.133382 0.627233 0.743789
568 1 0.0123128 0.694239 0.947885
565 1 0.0017491 0.632016 0.880265
385 1 0.00561836 0.517789 0.997556
532 1 0.00475805 0.570823 0.805417
543 1 0.0605009 0.632746 0.802871
550 1 0.316701 0.676619 0.747957
540 1 0.251416 0.558325 0.802042
551 1 0.311173 0.617546 0.809552
727 1 0.187418 0.748182 0.813293
548 1 0.121122 0.679596 0.813224
564 1 0.251834 0.563447 0.929033
552 1 0.248353 0.675418 0.814782
557 1 0.12013 0.507694 0.873841
576 1 0.239557 0.687347 0.938668
571 1 0.194578 0.623602 0.928272
536 1 0.117745 0.576188 0.814541
558 1 0.1844 0.561241 0.874453
569 1 0.118535 0.632652 0.882485
547 1 0.190293 0.616604 0.814372
562 1 0.319196 0.554251 0.879061
394 1 0.317396 0.566654 0.998022
574 1 0.313867 0.683953 0.871306
554 1 0.0668876 0.57032 0.873298
560 1 0.127589 0.564245 0.942359
406 1 0.3026 0.694845 0.989002
573 1 0.250236 0.614968 0.866614
566 1 0.0578643 0.685033 0.869782
572 1 0.14507 0.694632 0.93559
570 1 0.184143 0.68329 0.865045
575 1 0.327334 0.624134 0.934315
567 1 0.0680006 0.638055 0.948337
725 1 0.126643 0.749726 0.760294
555 1 0.0647719 0.509018 0.934946
731 1 0.303574 0.739895 0.815447
559 1 0.178521 0.500598 0.936999
390 1 0.190901 0.570129 0.999337
531 1 0.0618557 0.506651 0.803277
563 1 0.305969 0.50013 0.940919
539 1 0.310403 0.49857 0.814892
747 1 0.0771935 0.743641 0.939953
753 1 0.241433 0.748456 0.873473
556 1 0.015213 0.574622 0.937351
615 1 0.0596767 0.884498 0.195916
609 1 0.255176 0.755935 0.123559
607 1 0.195324 0.7529 0.196426
592 1 0.00837924 0.934876 0.0605994
622 1 0.320185 0.940036 0.128078
577 1 0.0084688 0.755988 0.0027487
612 1 0.253266 0.809683 0.187645
9 1 0.256542 0.994596 0.00327389
605 1 0.140113 0.754741 0.130239
578 1 0.0611094 0.816779 0.00267779
591 1 0.0629651 0.874453 0.0611821
584 1 0.124954 0.825127 0.0662849
588 1 0.251631 0.828998 0.0515862
599 1 0.316465 0.87817 0.0691477
614 1 0.0718614 0.942367 0.119623
595 1 0.191921 0.883207 0.0593274
600 1 0.252594 0.94245 0.0654864
596 1 0.124113 0.93322 0.0541411
623 1 0.321976 0.868816 0.188336
602 1 0.0691764 0.815316 0.128251
606 1 0.190906 0.816097 0.130983
610 1 0.320287 0.814095 0.126694
598 1 0.323132 0.94781 0.0148263
621 1 0.255832 0.880945 0.123213
617 1 0.122944 0.874461 0.126079
618 1 0.187029 0.93154 0.121978
619 1 0.188155 0.868734 0.189232
646 1 0.317903 0.935984 0.250449
620 1 0.123617 0.941338 0.186281
624 1 0.243676 0.936518 0.190369
583 1 0.190107 0.752189 0.0694928
608 1 0.123515 0.823675 0.190657
616 1 0.00542164 0.946955 0.188365
579 1 0.0597684 0.754042 0.0644931
594 1 0.190335 0.948043 0.00825526
642 1 0.189968 0.929531 0.250087
597 1 0.254722 0.895785 0.00340022
601 1 0.00690924 0.748749 0.125831
604 1 0.00903061 0.810228 0.180369
637 1 -0.00342361 0.865884 0.24537
5 1 0.125257 0.998099 -0.00310904
581 1 0.122699 0.755475 0.0119596
634 1 0.31675 0.8152 0.252095
29 1 0.137171 0.990647 0.109777
585 1 0.253317 0.759373 0.0139789
590 1 0.0707769 0.939351 -0.00374303
580 1 0.00277336 0.811863 0.0655209
613 1 0.00459731 0.871864 0.119935
31 1 0.18816 0.994382 0.189426
641 1 0.124558 0.885135 0.245362
582 1 0.18476 0.811076 0.0104738
630 1 0.186828 0.814226 0.253278
653 1 0.119555 0.755261 0.38039
638 1 0.0644003 0.938011 0.258092
664 1 0.0058891 0.943397 0.427588
636 1 0.250604 0.811137 0.30594
678 1 0.177281 0.811273 0.503611
643 1 0.194535 0.877564 0.314178
647 1 0.309511 0.875037 0.302692
652 1 0.00533018 0.818806 0.436568
648 1 0.2536 0.934577 0.313209
632 1 0.130917 0.824879 0.310365
670 1 0.308042 0.940779 0.377271
658 1 0.311741 0.815513 0.370335
639 1 0.0600801 0.874549 0.313804
669 1 0.257725 0.880688 0.376658
651 1 0.055155 0.756494 0.438342
671 1 0.31208 0.866817 0.434902
644 1 0.121546 0.943136 0.314717
666 1 0.201835 0.946561 0.380096
656 1 0.119195 0.814143 0.436127
654 1 0.187304 0.812037 0.381868
660 1 0.239577 0.801859 0.445857
650 1 0.0652524 0.816926 0.37646
667 1 0.189069 0.871901 0.435177
83 1 0.30012 1.00648 0.439612
663 1 0.0638028 0.878016 0.428167
665 1 0.130968 0.87286 0.381487
672 1 0.250699 0.938391 0.450147
662 1 0.0563408 0.940018 0.366088
668 1 0.139118 0.936536 0.434745
673 1 0.0053271 0.760857 0.505747
631 1 0.191429 0.759764 0.31627
694 1 0.314302 0.942276 0.494673
628 1 -0.00183714 0.813668 0.312187
659 1 0.316272 0.754606 0.436493
661 1 0.00153822 0.871998 0.372655
635 1 0.316991 0.761122 0.311684
75 1 0.0722384 0.995261 0.429154
686 1 0.0603744 0.940268 0.491993
626 1 0.0704863 0.809052 0.25489
693 1 0.24469 0.872369 0.498417
690 1 0.184343 0.933006 0.50032
645 1 0.253306 0.877263 0.251693
57 1 0.262106 0.992406 0.256054
699 1 0.0541972 0.751706 0.682268
729 1 0.246395 0.752577 0.754066
704 1 0.122644 0.800791 0.693366
99 1 0.0736757 0.998575 0.572522
687 1 0.0690247 0.876074 0.564065
680 1 0.125206 0.813064 0.566993
675 1 0.0681057 0.750701 0.559429
684 1 0.248527 0.81979 0.564097
691 1 0.18819 0.874205 0.557265
696 1 0.261037 0.946697 0.558571
709 1 0.0105744 0.881295 0.624444
692 1 0.122606 0.933433 0.558619
733 1 0.0125841 0.876378 0.73896
683 1 0.311929 0.755349 0.566996
688 1 0.0102054 0.93387 0.563175
707 1 0.31416 0.757034 0.69062
702 1 0.187707 0.81333 0.621934
717 1 0.241217 0.876394 0.629052
713 1 0.140033 0.881602 0.62138
700 1 0.00493316 0.815079 0.684152
695 1 0.306817 0.87564 0.563964
714 1 0.192417 0.941292 0.62124
719 1 0.304333 0.875114 0.694586
718 1 0.309307 0.941903 0.629243
711 1 0.079688 0.869415 0.685069
715 1 0.186157 0.863956 0.688347
698 1 0.0666427 0.810787 0.623976
706 1 0.299728 0.820774 0.623869
710 1 0.0761482 0.943453 0.627229
716 1 0.14462 0.934755 0.684382
674 1 0.0699724 0.814785 0.50675
720 1 0.254907 0.939845 0.693443
149 1 0.136786 1.00103 0.745663
708 1 0.248155 0.818893 0.694615
722 1 0.0625459 0.804084 0.747661
712 1 0.00791033 0.942319 0.684064
734 1 0.0777402 0.928339 0.740928
127 1 0.191672 1.0007 0.684269
689 1 0.121501 0.876183 0.500958
123 1 0.0751632 0.998609 0.684802
101 1 0.13989 1.00396 0.505663
737 1 0.132123 0.869231 0.751867
676 1 0.0027757 0.817762 0.572123
685 1 0.00220017 0.867167 0.506591
738 1 0.197075 0.93932 0.752545
145 1 0.00278003 0.991467 0.742947
681 1 0.24724 0.749655 0.504397
682 1 0.304747 0.814434 0.504542
677 1 0.121506 0.754874 0.497217
726 1 0.190886 0.812909 0.754572
763 1 0.198203 0.874779 0.942229
755 1 0.319997 0.745765 0.927965
748 1 0.0184624 0.806187 0.938
735 1 0.0644183 0.873161 0.799374
151 1 0.17723 0.993841 0.822448
741 1 0.251593 0.874889 0.756324
752 1 0.122001 0.814074 0.943214
169 1 8.74045e-05 0.99221 0.869865
751 1 0.194084 0.76977 0.941959
740 1 0.12192 0.927953 0.808273
723 1 0.0638386 0.749355 0.813301
586 1 0.305371 0.813027 0.993537
760 1 0.00174841 0.93466 0.942731
728 1 0.132242 0.812561 0.814715
732 1 0.257244 0.809077 0.809986
743 1 0.305846 0.885137 0.811893
749 1 0.138071 0.752468 0.884162
758 1 0.0760074 0.934358 0.876099
739 1 0.194431 0.875974 0.81555
744 1 0.256079 0.953653 0.825574
768 1 0.234167 0.94703 0.938629
745 1 0.00556526 0.758411 0.866106
746 1 0.0759419 0.803993 0.875507
754 1 0.31486 0.807551 0.870362
761 1 0.124882 0.870228 0.882836
750 1 0.189142 0.820371 0.879084
765 1 0.248356 0.878394 0.879212
767 1 0.305317 0.878357 0.939887
764 1 0.1326 0.940316 0.938691
762 1 0.184451 0.931568 0.879964
766 1 0.311413 0.94208 0.888521
759 1 0.0584701 0.874142 0.938044
756 1 0.25593 0.815504 0.929372
147 1 0.0652092 0.989719 0.809597
736 1 0.00629124 0.930021 0.806032
742 1 0.312563 0.942782 0.750615
730 1 0.314115 0.810107 0.74995
171 1 0.0661009 0.992486 0.938474
593 1 0.12347 0.876755 0.994852
776 1 0.498354 0.0706967 0.0731406
771 1 0.440776 0.00363821 0.0758479
778 1 0.628964 0.0555645 0.0507262
785 1 0.564957 0.13326 0.0653855
795 1 0.565424 0.00901757 0.19055
781 1 0.436395 0.137353 0.0664231
796 1 0.49762 0.0612341 0.190246
823 1 0.501246 0.131355 0.23978
786 1 0.501618 0.193203 0.0634005
801 1 0.437698 0.133766 0.186804
772 1 0.37473 0.0810157 0.0697444
790 1 0.434104 0.0677572 0.138946
799 1 0.371942 0.139971 0.123234
803 1 0.50332 0.134552 0.1304
782 1 0.374612 0.1892 0.0552742
804 1 0.561845 0.189029 0.125131
807 1 0.62599 0.124574 0.131954
819 1 0.378285 0.141773 0.238144
788 1 0.63915 0.181445 0.0704715
794 1 0.559509 0.064209 0.125193
820 1 0.442812 0.196528 0.23798
805 1 0.567509 0.131778 0.183152
798 1 0.640658 0.0512832 0.179284
802 1 0.376944 0.19872 0.184257
800 1 0.44643 0.19285 0.126243
773 1 0.489105 0.00707854 0.00879355
806 1 0.506416 0.19439 0.18352
808 1 0.625813 0.18893 0.189921
792 1 0.366552 0.0767902 0.188379
791 1 0.4404 0.0027351 0.188386
827 1 0.630102 0.114677 0.231179
937 1 0.632335 0.248213 0.00950891
780 1 0.44576 0.186837 0.00215244
783 1 0.501751 0.122289 0.00989871
770 1 0.438169 0.0686836 0.0113687
789 1 0.376102 0.00336003 0.133641
784 1 0.562909 0.18748 -0.00200758
793 1 0.500354 0.00942372 0.130691
824 1 0.566277 0.186989 0.249701
787 1 0.620125 0.120665 0.00294788
810 1 0.433299 0.0682629 0.245883
775 1 0.550955 0.00757034 0.0590861
769 1 0.381917 0.0104207 0.0131463
989 1 0.374477 0.254205 0.364685
816 1 0.506092 0.0757337 0.301601
818 1 0.629093 0.0562884 0.329439
812 1 0.375021 0.0790954 0.302238
977 1 0.624372 0.254612 0.249802
825 1 0.579985 0.123571 0.310348
828 1 0.62927 0.188878 0.314685
997 1 0.631741 0.239679 0.373261
826 1 0.495993 0.189892 0.308995
867 1 0.619282 0.127497 0.495608
830 1 0.438682 0.0758982 0.369883
834 1 0.57044 0.0627638 0.384042
822 1 0.377232 0.187727 0.305699
821 1 0.442572 0.129375 0.295968
843 1 0.513144 0.127607 0.362878
848 1 0.62749 0.184703 0.438722
844 1 0.569465 0.190137 0.380821
831 1 0.437276 0.000109797 0.432055
838 1 0.634418 0.0523193 0.447813
839 1 0.381545 0.132449 0.374208
847 1 0.631016 0.125753 0.375518
842 1 0.367536 0.189705 0.446092
975 1 0.551262 0.247873 0.317927
840 1 0.447373 0.182869 0.380611
845 1 0.557972 0.134654 0.439236
841 1 0.433808 0.130521 0.436096
832 1 0.379335 0.0652227 0.429482
836 1 0.492154 0.0719717 0.435697
846 1 0.500895 0.205279 0.437199
854 1 0.552352 0.0755598 0.499607
811 1 0.434782 0.0114176 0.317303
813 1 0.510869 0.0100371 0.251773
863 1 0.500492 0.135859 0.497644
829 1 0.372718 0.00717659 0.370095
833 1 0.51411 0.0081383 0.383257
849 1 0.372039 -0.000274253 0.497058
814 1 0.577173 0.0604159 0.255582
859 1 0.379747 0.127706 0.500067
971 1 0.435285 0.247691 0.310881
815 1 0.560954 0.0159313 0.319165
850 1 0.439838 0.067735 0.507778
882 1 0.375231 0.186975 0.695237
858 1 0.623547 0.0588273 0.56534
861 1 0.441865 0.126152 0.573807
871 1 0.437181 0.00548884 0.679096
878 1 0.627196 0.0441521 0.694161
865 1 0.563896 0.126166 0.568845
894 1 0.567226 0.0619273 0.750383
866 1 0.494311 0.189265 0.559964
868 1 0.62937 0.184923 0.558863
862 1 0.371095 0.187154 0.571381
852 1 0.380093 0.073842 0.573823
851 1 0.435123 0.00263099 0.559776
873 1 0.570504 0.0700797 0.634998
879 1 0.383208 0.132259 0.631538
870 1 0.442961 0.0685057 0.626757
856 1 0.497015 0.0577219 0.565075
887 1 0.623329 0.132386 0.618932
880 1 0.44613 0.183033 0.626287
884 1 0.560442 0.185458 0.623757
872 1 0.395026 0.0747896 0.692131
874 1 0.566614 0.00595854 0.542792
886 1 0.508256 0.203102 0.697672
881 1 0.448722 0.137604 0.698502
876 1 0.499631 0.0673178 0.689049
885 1 0.558588 0.127169 0.688692
883 1 0.504533 0.119462 0.624603
888 1 0.625987 0.180077 0.682667
1033 1 0.499938 0.245019 0.622685
860 1 0.440988 0.188537 0.502725
864 1 0.56642 0.193816 0.503647
1009 1 0.376546 0.244382 0.505448
1035 1 0.573949 0.245512 0.690357
869 1 0.365234 0.00673272 0.63
907 1 0.621442 0.122931 0.753054
903 1 0.507699 0.132675 0.753552
1011 1 0.440877 0.247479 0.572308
1037 1 0.632122 0.246737 0.624121
1029 1 0.378603 0.243605 0.626141
1031 1 0.431123 0.246764 0.685049
853 1 0.495758 0.00847027 0.504467
1077 1 0.619177 0.243671 0.877925
891 1 0.445088 0.00779978 0.816282
921 1 0.441666 0.119916 0.937949
896 1 0.50199 0.068553 0.813495
1051 1 0.441526 0.245213 0.822634
901 1 0.442893 0.122638 0.814364
918 1 0.618935 0.0517938 0.944525
906 1 0.501532 0.187161 0.813176
908 1 0.626311 0.178242 0.820602
928 1 0.624661 0.190891 0.948515
914 1 0.556508 0.0572891 0.876081
892 1 0.368368 0.070699 0.810649
905 1 0.566666 0.119735 0.819597
898 1 0.627421 0.0624253 0.804122
920 1 0.429987 0.193674 0.879561
924 1 0.564995 0.178846 0.879025
902 1 0.378607 0.185739 0.816029
779 1 0.370257 0.122614 1.00295
910 1 0.440501 0.0669999 0.879728
923 1 0.504226 0.124875 0.874654
916 1 0.499037 0.0664104 0.934056
919 1 0.379958 0.126527 0.870309
927 1 0.619822 0.124142 0.88907
922 1 0.38744 0.186266 0.946088
1073 1 0.50339 0.249037 0.871199
926 1 0.504752 0.181994 0.937821
912 1 0.379484 0.0658873 0.937449
925 1 0.560585 0.118062 0.944019
1053 1 0.512427 0.251211 0.759998
917 1 0.614385 -0.00113973 0.885418
1075 1 0.563747 0.242537 0.939556
890 1 0.443473 0.0653469 0.756701
899 1 0.379106 0.124711 0.752697
911 1 0.439185 0.00988299 0.934951
774 1 0.556563 0.0597598 0.997046
900 1 0.445458 0.194819 0.760824
893 1 0.501869 -0.00052792 0.750906
1049 1 0.377157 0.241899 0.759021
889 1 0.376671 0.0132788 0.753956
904 1 0.567881 0.188773 0.759346
1093 1 0.514681 0.483786 0.00404338
938 1 0.625593 0.31392 0.077888
957 1 0.620834 0.252756 0.129633
931 1 0.442313 0.251542 0.0674852
947 1 0.619004 0.362774 0.0141286
953 1 0.506883 0.248912 0.118816
958 1 0.627791 0.317468 0.192715
942 1 0.36625 0.442377 0.0659544
935 1 0.573717 0.253917 0.0620958