ITEM: TIMESTEP
100000
ITEM: NUMBER OF ATOMS
2048
ITEM: BOX BOUNDS pp pp pp
0.0000000000000000e+00 1.3679807573413575e+01
0.0000000000000000e+00 1.3679807573413575e+01
0.0000000000000000e+00 1.3679807573413575e+01
ITEM: ATOMS id type xs ys zs
482 1 0.237351 0.0158743 0.137601
1195 1 0.0311298 0.151403 0.111343
388 1 0.181877 0.0847802 0.160386
347 1 0.0450568 0.0445622 0.0645068
969 1 0.228783 0.242381 0.213285
1632 1 0.26337 0.0901654 0.0438706
1390 1 0.0138487 0.100613 0.0165816
383 1 0.145319 0.145272 0.0257575
1861 1 0.258732 0.0127583 0.053193
478 1 0.171628 0.181307 0.189175
1496 1 0.15217 0.00555968 0.163399
1283 1 0.147451 0.220127 0.244335
1639 1 0.306451 0.0177602 0.107994
316 1 0.0807515 0.156109 0.165896
275 1 0.23053 0.124176 0.196826
703 1 0.178363 0.222865 0.114546
564 1 0.0970256 0.097117 0.211771
1043 1 0.288647 0.129827 0.243466
1997 1 0.134227 0.0602903 0.0241712
9 1 0.0339915 0.0170416 0.183673
1839 1 0.21978 0.162388 0.118383
455 1 0.0653438 0.224989 0.190645
366 1 0.123005 0.095752 0.108384
31 1 0.0561283 0.0793486 0.136436
1577 1 0.201335 0.184338 0.0515518
329 1 0.30957 0.171321 0.0871795
853 1 0.206696 0.0341746 0.202284
401 1 0.069068 0.20949 0.100412
540 1 0.0208485 0.184563 0.0509088
870 1 0.176014 0.0205037 0.0886772
955 1 0.0781575 0.137037 0.0542014
1093 1 0.131364 0.217768 0.0226799
724 1 0.0918501 0.0151582 0.122267
169 1 0.205651 0.0880945 0.083464
396 1 0.279035 0.0879926 0.159808
690 1 0.275466 0.208267 0.167171
916 1 0.255041 0.229544 0.0886052
1917 1 0.0260577 0.0905253 0.212562
1004 1 0.125102 0.0178496 0.24413
295 1 0.327085 0.0827996 0.0843021
1635 1 0.0111549 0.175765 0.219699
105 1 0.0790899 0.163881 0.248886
614 1 0.211012 0.166414 0.25022
394 1 0.308987 0.0535009 0.247857
951 1 0.0709613 0.135603 0.340467
1967 1 0.327224 0.0440898 0.446126
27 1 0.287938 0.166993 0.447736
1357 1 0.309634 0.000273654 0.30747
225 1 0.238699 0.0234144 0.331995
1926 1 0.239557 0.152661 0.355844
292 1 0.0949935 0.199489 0.322342
400 1 0.219807 0.236358 0.391762
820 1 0.0271407 0.0809132 0.290537
741 1 0.00369068 0.190504 0.399511
2047 1 0.169851 0.0999794 0.439757
1540 1 0.284975 0.190388 0.298014
866 1 0.101944 0.0462678 0.455736
880 1 0.0574374 0.0825586 0.415112
720 1 0.185992 0.0269448 0.283428
1238 1 0.143601 0.155676 0.293895
1383 1 0.325709 0.00868974 0.383547
1891 1 0.221896 0.156411 0.424851
947 1 0.0751954 0.00838518 0.296034
1412 1 0.294394 0.204604 0.384298
1673 1 0.118051 0.132666 0.401044
977 1 0.156522 0.194657 0.415443
1158 1 0.0696216 0.135969 0.462002
898 1 0.0728768 0.212222 0.403885
907 1 0.179437 0.234017 0.476101
360 1 0.00874305 0.24693 0.357805
1872 1 0.2063 0.0926657 0.313997
1052 1 0.188323 0.210799 0.311115
568 1 0.27161 0.0878925 0.440843
1985 1 0.209282 0.0480201 0.413919
1698 1 0.301867 0.0744566 0.378355
1228 1 0.279055 0.0959191 0.305928
381 1 0.334161 0.226908 0.440952
1293 1 0.164356 0.00856368 0.349771
1901 1 0.0250207 0.0337658 0.363811
1544 1 0.0562769 0.24 0.272137
619 1 0.151301 0.0902709 0.261222
1954 1 0.164455 0.00405434 0.500442
516 1 0.00567744 0.0240631 0.251936
1480 1 0.270684 0.230401 0.484922
574 1 0.319916 0.236114 0.261345
1274 1 0.280226 0.0881326 0.507406
1779 1 0.0964514 0.119964 0.627067
1748 1 0.258257 0.131337 0.653505
330 1 0.0852945 0.126844 0.739858
224 1 0.278401 0.202865 0.631154
527 1 0.303497 0.219374 0.555558
472 1 0.277033 0.154552 0.577961
1174 1 0.222679 0.0598297 0.548875
1050 1 0.234185 0.0621486 0.693356
79 1 0.321904 0.184849 0.684417
226 1 0.272215 0.137688 0.74758
843 1 0.271771 0.0166771 0.636032
1305 1 0.231014 0.141872 0.512844
1424 1 0.0730602 0.156574 0.550956
434 1 0.153039 0.158793 0.658295
1151 1 0.0393193 0.114624 0.675505
721 1 0.0113405 0.137419 0.506556
305 1 0.203265 0.184379 0.610342
480 1 0.00763833 0.0480655 0.648749
1903 1 0.210861 0.163464 0.705537
178 1 0.139166 0.126345 0.572016
1005 1 0.191067 0.0977017 0.642672
641 1 0.0996135 0.211825 0.658631
320 1 0.0562906 0.237692 0.585341
1834 1 0.0286194 0.181415 0.612763
1242 1 0.178154 0.222115 0.676817
887 1 0.178744 0.189906 0.543097
1596 1 0.323153 0.153273 0.511278
771 1 0.0869514 0.0251178 0.629511
1125 1 0.133346 0.173048 0.730315
1017 1 0.040482 0.208512 0.510927
1172 1 0.288806 0.0795162 0.605581
2017 1 0.14046 0.0423941 0.673967
176 1 0.155302 0.0292725 0.743326
744 1 0.153375 0.107665 0.707067
1168 1 0.139839 0.0275115 0.563336
1306 1 0.117808 0.195922 0.585393
1057 1 0.0290708 0.105248 0.589362
1690 1 0.216694 0.242419 0.574102
167 1 0.109662 0.21957 0.518455
783 1 0.0320925 0.0167283 0.585744
1602 1 0.0797658 0.0359672 0.713318
1018 1 0.292245 0.0152874 0.529702
970 1 0.0448398 0.189658 0.693883
418 1 0.00245059 0.0562905 0.508654
119 1 0.08317 0.0854312 0.518026
432 1 0.301258 0.0828651 0.682421
196 1 0.0212952 0.0907195 0.743445
1335 1 0.15105 0.0756095 0.507342
271 1 0.0964902 0.230655 0.747932
953 1 0.106967 0.10175 0.968399
28 1 0.328205 0.225156 0.953545
873 1 0.0827527 0.0388625 0.79695
1625 1 0.014459 0.143953 0.856027
651 1 0.325607 0.187605 0.884042
844 1 0.252231 0.0540782 0.951803
1868 1 0.0486323 0.00406878 0.844959
422 1 0.0177454 0.0756782 0.930806
1733 1 0.207346 0.0988619 0.752659
452 1 0.0475405 0.229787 0.952625
1434 1 0.165936 0.129159 0.86797
1710 1 0.116736 0.225067 0.892534
1132 1 0.315674 0.0744879 0.783931
635 1 0.0738558 0.142125 0.908394
919 1 0.305637 0.145512 0.934031
419 1 0.209923 0.174616 0.772367
1755 1 0.269843 0.180524 0.986537
2014 1 0.0463885 0.212595 0.871049
1250 1 0.0638077 0.194246 0.804817
1968 1 0.140691 0.0226238 0.860041
695 1 0.129917 0.101833 0.791333
678 1 0.30038 0.00101282 0.866176
1979 1 0.26435 0.138169 0.8262
688 1 0.0235971 0.0108399 0.979016
1341 1 0.183979 0.0740382 0.82928
1840 1 0.144657 0.18592 0.808263
612 1 0.325071 0.0739051 0.914548
378 1 0.238598 0.0976709 0.893735
1493 1 0.291305 0.246408 0.852695
1352 1 0.220642 0.0139237 0.866118
659 1 0.160721 0.247657 0.769809
1286 1 0.176002 0.158975 0.945791
1505 1 0.213478 0.17947 0.84418
1864 1 0.196661 0.248539 0.854511
252 1 0.240923 0.187195 0.924081
227 1 0.0894111 0.0245674 0.942341
1933 1 0.1722 0.0791693 0.916915
1422 1 0.0658712 0.105426 0.834624
674 1 0.207948 0.016019 0.991728
1415 1 0.107082 0.0834128 0.889748
515 1 0.266518 0.0586196 0.827027
1278 1 0.258291 0.225895 0.780204
1551 1 0.316778 0.00680943 0.947794
1262 1 0.193717 0.103287 0.994613
1854 1 0.0108547 0.156803 0.947925
1541 1 0.230219 0.0198723 0.76314
1892 1 0.326288 0.208962 0.787497
437 1 0.000482286 0.22756 0.812713
2048 1 0.157769 0.422081 0.222707
336 1 0.0533914 0.364707 0.0491455
806 1 0.063064 0.368116 0.221615
897 1 0.245265 0.286676 0.0468031
314 1 0.100449 0.442058 0.186623
1040 1 0.116937 0.468381 0.0971619
1683 1 0.277107 0.418566 0.108331
1398 1 0.0964327 0.429619 0.0361382
578 1 0.240968 0.428792 0.168531
1899 1 0.235612 0.38584 0.0483805
922 1 0.148094 0.348309 0.239427
1458 1 0.168945 0.427048 0.132959
82 1 0.00785855 0.464224 0.184628
903 1 0.124935 0.35699 0.023084
923 1 0.0141235 0.368977 0.143573
1439 1 0.190013 0.326045 0.17463
335 1 0.0389345 0.283589 0.140882
565 1 0.152259 0.283413 0.074308
753 1 0.251953 0.465941 0.0601347
1126 1 0.247982 0.3549 0.12792
754 1 0.22504 0.376132 0.224432
1925 1 0.238473 0.501033 0.157261
479 1 0.264405 0.292025 0.165245
1096 1 0.313544 0.278538 0.0265834
1975 1 0.0784684 0.411862 0.113059
1359 1 0.036653 0.490991 0.110946
1225 1 0.172556 0.453109 0.0523899
1809 1 0.310346 0.367571 0.180443
1568 1 0.213645 0.291981 0.117907
1878 1 0.0890999 0.299503 0.238854
877 1 0.1231 0.267443 0.183851
591 1 0.053491 0.463712 0.246806
498 1 0.162908 0.343501 0.109652
1591 1 0.293725 0.352789 0.0125802
765 1 0.198288 0.297553 0.248282
1042 1 0.0898899 0.318996 0.108761
1011 1 0.137476 0.374997 0.172692
1094 1 0.286282 0.458667 0.213594
1326 1 0.0366231 0.254967 0.0419667
1671 1 0.328448 0.456676 0.0111701
802 1 0.100812 0.281455 0.00500683
1060 1 0.329323 0.277706 0.109222
98 1 0.296034 0.30213 0.234881
318 1 0.164705 0.485903 0.189887
1421 1 0.20698 0.331894 0.00816417
2032 1 0.327188 0.363966 0.10366
1678 1 0.0144147 0.309564 0.391634
1218 1 0.197668 0.356487 0.297947
1409 1 0.296183 0.407039 0.417233
670 1 0.00568309 0.40325 0.456674
1323 1 0.162707 0.444733 0.451249
1956 1 0.198226 0.362221 0.460326
994 1 0.136274 0.366395 0.419636
623 1 0.0612616 0.344295 0.356139
1142 1 0.230686 0.287778 0.464463
1952 1 0.0707772 0.423483 0.417206
1885 1 0.290912 0.34785 0.371643
1070 1 0.300686 0.451074 0.317735
1379 1 0.308277 0.293289 0.488851
1980 1 0.193664 0.286512 0.350123
1884 1 0.274087 0.331257 0.302293
189 1 0.16959 0.301204 0.43308
112 1 0.237668 0.405059 0.368071
1626 1 0.111326 0.305681 0.493629
1353 1 0.134635 0.359526 0.342521
791 1 0.294662 0.400072 0.251235
768 1 0.0166635 0.42024 0.361324
1680 1 0.150313 0.410499 0.296529
253 1 0.127738 0.266895 0.319181
1518 1 0.0751485 0.472644 0.466197
581 1 0.243577 0.463681 0.416354
50 1 0.296808 0.281147 0.415819
326 1 0.0266715 0.396931 0.284625
1815 1 0.0141384 0.310317 0.251618
2000 1 0.0711991 0.36078 0.454769
274 1 0.0872527 0.347867 0.287026
142 1 0.239433 0.458414 0.498449
29 1 0.1351 0.262429 0.39051
186 1 0.203944 0.344664 0.390249
884 1 0.244435 0.262588 0.291742
1131 1 0.200702 0.472311 0.299267
511 1 0.151589 0.450848 0.35736
1090 1 0.26394 0.390086 0.481334
948 1 0.025484 0.249336 0.444793
732 1 0.0871983 0.464101 0.32457
1579 1 0.324087 0.257692 0.332255
1449 1 0.0356771 0.489366 0.593947
655 1 0.294331 0.379046 0.691264
1692 1 0.2495 0.470967 0.578863
600 1 0.034408 0.435539 0.649652
621 1 0.171133 0.43436 0.660495
1514 1 0.0539516 0.260312 0.697678
232 1 0.000215689 0.496937 0.693869
1512 1 0.315999 0.265584 0.61175
864 1 0.104747 0.376924 0.639774
1528 1 0.0479984 0.290218 0.509827
1883 1 0.302851 0.413836 0.567183
1021 1 0.323843 0.304294 0.674384
2044 1 0.251946 0.265231 0.659697
1082 1 0.26681 0.292307 0.558228
1304 1 0.0331201 0.364408 0.526244
1703 1 0.262694 0.460737 0.667052
272 1 0.0387117 0.439286 0.517158
228 1 0.062947 0.419458 0.726171
1290 1 0.176371 0.279352 0.62032
1826 1 0.1885 0.286209 0.722048
664 1 0.150797 0.469023 0.527251
245 1 0.0317469 0.413761 0.578107
1048 1 0.16992 0.273305 0.532262
1762 1 0.32841 0.352467 0.617949
135 1 0.06447 0.334104 0.594667
1049 1 0.100452 0.290244 0.639198
1408 1 0.160343 0.358674 0.696075
22 1 0.178539 0.360528 0.627266
1413 1 0.250128 0.392166 0.623861
1567 1 0.221322 0.35108 0.556048
770 1 0.133807 0.325978 0.563549
217 1 0.197325 0.421013 0.551462
496 1 0.116478 0.39293 0.575072
412 1 0.282242 0.274218 0.728363
1805 1 0.226736 0.396856 0.698075
1555 1 0.0174739 0.292823 0.631319
1519 1 0.119984 0.464995 0.624052
1643 1 0.257682 0.338937 0.745597
1407 1 0.0488329 0.34299 0.716767
1022 1 0.144636 0.38592 0.507777
644 1 0.331265 0.476405 0.698732
1877 1 0.307177 0.453149 0.502719
1100 1 0.248992 0.386293 0.957544
726 1 0.0265658 0.29355 0.982519
1299 1 0.158605 0.482795 0.847267
1949 1 0.022539 0.41227 0.904294
1316 1 0.161303 0.381031 0.960129
1682 1 0.29115 0.476416 0.854507
450 1 0.00628209 0.334354 0.926167
1978 1 0.0377399 0.295634 0.774199
1977 1 0.0154357 0.498314 0.910037
1344 1 0.0634625 0.357607 0.798143
1894 1 0.142994 0.316074 0.922934
1672 1 0.301478 0.489877 0.947341
1912 1 0.250503 0.273851 0.903095
1219 1 0.21925 0.295895 0.795827
1638 1 0.228455 0.470562 0.944581
1734 1 0.0102243 0.297329 0.840398
1927 1 0.0454584 0.279083 0.897
988 1 0.155628 0.45118 0.909458
1111 1 0.239674 0.488625 0.80808
577 1 0.17211 0.395195 0.849072
592 1 0.0936565 0.368343 0.940191
505 1 0.235446 0.379733 0.809647
841 1 0.27605 0.324183 0.827699
1182 1 0.091734 0.337147 0.87861
413 1 0.0328652 0.44476 0.799018
1575 1 0.333696 0.415391 0.947338
807 1 0.134675 0.293622 0.832204
32 1 0.19668 0.464872 0.751407
1712 1 0.0789795 0.486953 0.86836
261 1 0.25643 0.422827 0.886667
1647 1 0.0841091 0.414353 0.861455
473 1 0.154884 0.255656 0.956134
1532 1 0.272016 0.42711 0.776187
1319 1 0.174104 0.39429 0.770215
1823 1 0.318834 0.370072 0.784267
103 1 0.197607 0.323686 0.868568
1053 1 0.300236 0.361126 0.893405
387 1 0.11778 0.464292 0.976063
569 1 0.127632 0.435915 0.805479
7 1 0.0576676 0.418933 0.976828
1474 1 0.22612 0.259813 0.97412
781 1 0.329151 0.29131 0.926391
435 1 0.0974791 0.654951 0.183428
1360 1 0.0752383 0.511167 0.177261
1845 1 0.208469 0.588047 0.106636
1515 1 0.118848 0.663884 0.0550045
995 1 0.0716397 0.604738 0.0995579
1646 1 0.315343 0.666855 0.148436
41 1 0.152536 0.739032 0.0256796
221 1 0.0471791 0.682466 0.0715316
1932 1 0.150356 0.694593 0.22669
513 1 0.307037 0.541613 0.00259216
971 1 0.138366 0.725337 0.141395
302 1 0.00168138 0.557583 0.134003
814 1 0.227196 0.694421 0.244979
739 1 0.208719 0.710308 0.175824
850 1 0.00519215 0.625358 0.0686811
499 1 0.142357 0.645374 0.11684
859 1 0.281146 0.716738 0.105433
1617 1 0.175289 0.500507 0.118511
595 1 0.0719463 0.703035 0.140229
1313 1 0.216874 0.623278 0.20812
1028 1 0.206143 0.728487 0.0784093
1851 1 0.249223 0.608442 0.0289884
626 1 0.0330183 0.552957 0.228174
37 1 0.132697 0.563064 0.103785
1707 1 0.0704019 0.589675 0.0322575
1693 1 0.215936 0.657 0.121656
597 1 0.00876285 0.542666 0.0603499
1277 1 0.284781 0.655863 0.226217
657 1 0.0854692 0.728407 0.218406
1953 1 0.0923202 0.511226 0.0499086
11 1 0.302315 0.506446 0.122379
2038 1 0.0613329 0.724498 0.00986864
256 1 0.197296 0.533576 0.00582544
384 1 0.250862 0.545067 0.0688519
1466 1 0.258134 0.581037 0.168194
159 1 0.291054 0.609309 0.10486
120 1 0.135096 0.566885 0.0121453
1653 1 0.203247 0.55034 0.223448
491 1 0.0992415 0.587114 0.171338
273 1 0.3028 0.720747 0.198857
548 1 0.179061 0.618045 0.0484881
1757 1 0.249295 0.676726 0.0563778
1105 1 0.284154 0.744961 0.0184202
837 1 0.14488 0.522332 0.260399
522 1 0.101457 0.517494 0.406856
1624 1 0.159976 0.61746 0.250601
1850 1 0.205314 0.546499 0.373279
1444 1 0.169092 0.68431 0.426568
1121 1 0.0646607 0.615463 0.32037
1896 1 0.0146719 0.720643 0.263021
1382 1 0.257772 0.689492 0.416441
489 1 0.105003 0.654367 0.453065
863 1 0.014403 0.620682 0.27252
136 1 0.174086 0.598031 0.416447
1339 1 0.322002 0.615968 0.417965
1178 1 0.0455527 0.626589 0.398585
296 1 0.112274 0.667258 0.368128
405 1 0.0265693 0.702167 0.431984
2001 1 0.131781 0.599176 0.349204
1507 1 0.137956 0.723054 0.479363
117 1 0.0221071 0.634652 0.467511
1367 1 0.283952 0.560889 0.331176
190 1 0.270088 0.72286 0.318633
819 1 0.0739926 0.57535 0.456541
299 1 0.0576709 0.540555 0.308899
46 1 0.325733 0.723681 0.36169
1120 1 0.293454 0.656091 0.299108
215 1 0.154768 0.524078 0.468059
1414 1 0.176254 0.736075 0.351988
104 1 0.0222579 0.668845 0.321046
1109 1 0.293985 0.516725 0.276077
554 1 0.141836 0.696733 0.2979
1744 1 0.0382339 0.514141 0.374569
334 1 0.0978358 0.735873 0.382054
1525 1 0.192053 0.665166 0.356064
1955 1 0.209036 0.552418 0.303492
331 1 0.306455 0.510508 0.382373
933 1 0.263161 0.591318 0.252214
602 1 0.12464 0.52237 0.338351
1847 1 0.24985 0.642369 0.473073
312 1 0.0760071 0.66881 0.258579
560 1 0.255455 0.629037 0.375823
598 1 0.243364 0.542492 0.436408
1537 1 0.0901285 0.584294 0.257748
504 1 0.13141 0.596183 0.497269
1588 1 0.0793896 0.632688 0.554496
349 1 0.0401088 0.575608 0.530786
1441 1 0.204552 0.743574 0.685883
1143 1 0.196587 0.527689 0.579213
152 1 0.289633 0.589695 0.570027
59 1 0.2979 0.662317 0.537476
1007 1 0.20069 0.564051 0.506187
1838 1 0.112582 0.541409 0.722032
2030 1 0.0196328 0.684418 0.658195
1010 1 0.126805 0.609202 0.741539
1898 1 0.313369 0.511243 0.63911
430 1 0.215248 0.724694 0.590223
327 1 0.257218 0.525497 0.736057
514 1 0.287898 0.639203 0.695184
199 1 0.263692 0.718708 0.513486
1637 1 0.0458934 0.686842 0.722586
179 1 0.309509 0.565893 0.688618
1197 1 0.212465 0.595823 0.575045
842 1 0.145885 0.625707 0.669538
1859 1 0.0880346 0.71899 0.532298
1837 1 0.0300639 0.616279 0.61002
1920 1 0.0992771 0.524207 0.587923
1563 1 0.119313 0.695718 0.696178
865 1 0.23717 0.591906 0.685587
1351 1 0.266944 0.528007 0.523988
259 1 0.167282 0.509043 0.653576
1393 1 0.0522705 0.551882 0.635461
486 1 0.254846 0.644919 0.614488
372 1 0.27573 0.715484 0.652384
1489 1 0.0846705 0.678775 0.612109
1425 1 0.249791 0.539663 0.636507
191 1 0.302221 0.739533 0.573099
1943 1 0.0774972 0.638402 0.686257
485 1 0.150681 0.581607 0.611964
172 1 0.198032 0.695243 0.508659
1852 1 0.153392 0.66446 0.596628
126 1 0.0424282 0.570983 0.709359
1674 1 0.20931 0.659578 0.674792
719 1 0.327726 0.618984 0.638117
570 1 0.00860959 0.715968 0.570714
776 1 0.212564 0.661546 0.915093
672 1 0.16477 0.738136 0.904232
1704 1 0.270424 0.62501 0.837652
1271 1 0.0745969 0.579285 0.788785
1149 1 0.16095 0.690134 0.841829
1470 1 0.00906585 0.55088 0.857823
1763 1 0.306054 0.58578 0.759821
231 1 0.087167 0.559857 0.880727
535 1 0.212051 0.608156 0.965084
1747 1 0.0434756 0.656636 0.949546
168 1 0.0411788 0.585589 0.940949
1167 1 0.275584 0.709265 0.815318
2025 1 0.17152 0.588219 0.883415
801 1 0.241086 0.5555 0.915763
443 1 0.187118 0.692145 0.776923
900 1 0.263717 0.669462 0.756474
643 1 0.107952 0.540655 0.952467
1456 1 0.10976 0.516314 0.802644
1730 1 0.177903 0.521555 0.937877
911 1 0.219875 0.611829 0.749363
686 1 0.290974 0.637012 0.976667
940 1 0.106593 0.722078 0.764198
1436 1 0.0898346 0.697514 0.862469
1645 1 0.102649 0.653728 0.990392
1287 1 0.18378 0.617325 0.819286
1572 1 0.253371 0.736469 0.880434
1521 1 0.111284 0.620847 0.845495
1490 1 0.0258449 0.751852 0.952127
1665 1 0.0655949 0.650782 0.782472
1047 1 0.0366782 0.619645 0.878462
501 1 0.131769 0.607826 0.941576
1292 1 0.0218587 0.697554 0.817586
818 1 0.178441 0.54455 0.788799
1276 1 0.103494 0.697005 0.931708
1014 1 0.241618 0.696413 0.977033
544 1 0.24876 0.559124 0.80096
1037 1 0.0375737 0.504292 0.979832
133 1 0.0221031 0.513112 0.760059
122 1 0.306458 0.561942 0.856019
250 1 0.118033 0.866762 0.166479
1411 1 0.323246 0.816229 0.0276425
1865 1 0.0238188 0.761747 0.120257
793 1 0.314536 0.999826 0.183912
76 1 0.213787 0.891193 0.189204
148 1 0.211395 0.869972 0.0710274
594 1 0.0670148 0.883958 0.215822
1445 1 0.303784 0.895063 0.0329425
236 1 0.258834 0.829138 0.135773
896 1 0.134103 0.878949 0.0922661
727 1 0.252364 0.92919 0.0681877
1548 1 0.168959 0.824015 0.0419698
1539 1 0.234937 0.836231 0.231197
833 1 0.0328934 0.88125 0.0457992
984 1 0.321853 0.882307 0.117055
1108 1 0.105132 0.785293 0.142187
216 1 0.243375 0.974307 0.199857
1732 1 0.0373357 0.924291 0.164906
1934 1 0.0614435 0.782862 0.0607435
605 1 0.241572 0.933167 0.139185
869 1 0.315782 0.800437 0.10312
1291 1 0.0949882 0.859439 0.0256819
1893 1 0.0676511 0.93003 0.0879005
1426 1 0.155357 0.938808 0.138573
1265 1 0.162473 0.901992 0.0254586
16 1 0.00866446 0.834624 0.14643
2005 1 0.307377 0.917576 0.202998
610 1 0.0671233 0.852945 0.107442
61 1 0.104421 0.811426 0.217472
981 1 0.13824 0.948503 0.0700566
1843 1 0.0011137 0.834851 0.239341
586 1 0.180981 0.844345 0.141074
738 1 0.093142 0.963707 0.177725
1963 1 0.178342 0.785575 0.216327
743 1 0.309014 0.854865 0.240638
493 1 0.148808 0.935626 0.221398
197 1 0.239896 0.794488 0.0612197
1906 1 0.0234292 0.778797 0.190283
108 1 0.0401689 0.942574 -0.000792206
1509 1 0.23871 0.839568 -0.00137707
893 1 0.0525859 0.949932 0.246123
847 1 0.197133 0.775982 0.13406
462 1 0.325812 0.946951 0.0859604
804 1 0.0769085 0.772154 0.448453
1819 1 0.02134 0.92741 0.363894
1750 1 0.0036231 0.769872 0.450922
1072 1 0.129981 0.842303 0.435469
1229 1 0.237147 0.973603 0.391847
1267 1 0.154843 0.941798 0.443774
1395 1 0.0194896 0.920198 0.48557
203 1 0.216694 0.983213 0.457107
813 1 0.01405 0.968831 0.430491
13 1 0.045411 0.7985 0.301421
377 1 0.189428 0.906011 0.366418
1781 1 0.0718863 0.933527 0.310811
895 1 0.301696 0.936101 0.358921
30 1 0.280485 0.838369 0.423422
188 1 0.222017 0.842401 0.374851
1223 1 0.198269 0.831553 0.444377
758 1 0.283254 0.768702 0.444422
930 1 0.200135 0.790931 0.312345
1133 1 0.271191 0.784149 0.255991
860 1 0.0740046 0.816676 0.370325
309 1 0.286949 0.812714 0.34751
1002 1 0.183104 0.867975 0.285216
290 1 0.13697 0.869414 0.336854
88 1 0.0495208 0.866393 0.324611
1543 1 0.248148 0.949124 0.312228
1069 1 0.0790076 0.977235 0.374824
908 1 0.225754 0.756539 0.405945
1610 1 0.151533 0.944836 0.307865
702 1 0.103152 0.764456 0.279239
613 1 0.239473 0.904907 0.250447
467 1 0.248005 0.877757 0.319111
601 1 0.254428 0.90752 0.433131
1032 1 0.331486 0.864746 0.314729
1406 1 0.00342669 0.750885 0.359351
280 1 0.078322 0.940789 0.448458
395 1 0.319794 0.932005 0.269379
1818 1 0.308114 0.965033 0.442262
1410 1 0.081654 0.885444 0.389597
1664 1 0.193375 0.769632 0.476148
68 1 0.0483598 0.838631 0.478335
1649 1 0.232477 0.985229 0.574888
1994 1 0.180196 0.83629 0.722595
138 1 0.0843515 0.755371 0.684773
147 1 0.0879508 0.956363 0.668756
352 1 0.264263 0.902448 0.702353
1629 1 0.0524195 0.93155 0.590821
1844 1 0.143766 0.976481 0.630642
266 1 0.0934095 0.829801 0.693584
153 1 0.148997 0.765294 0.65041
1960 1 0.228132 0.773234 0.748505
1584 1 0.104802 0.889392 0.749969
184 1 0.109737 0.850563 0.581504
673 1 0.312854 0.833004 0.646338
950 1 0.199708 0.852997 0.512038
64 1 0.0588155 0.99837 0.500006
1041 1 0.278212 0.770835 0.697605
341 1 0.312882 0.832643 0.512826
1059 1 0.0447361 0.896112 0.685513
1538 1 0.150497 0.759619 0.549042
303 1 0.279383 0.927866 0.513262
920 1 0.246332 0.867791 0.598603
96 1 0.139753 0.95876 0.559829
1478 1 0.177353 0.946146 0.730963
1640 1 0.226757 0.83155 0.665464
1981 1 0.098747 0.898872 0.519339
2046 1 0.181706 0.831335 0.585194
1483 1 0.297628 0.91611 0.634756
91 1 0.155689 0.765015 0.731763
631 1 0.327786 0.894015 0.571865
1079 1 0.290937 0.972065 0.703293
1908 1 0.0610231 0.830737 0.631866
556 1 0.061752 0.800916 0.537518
87 1 0.18394 0.903513 0.578873
1775 1 0.146091 0.884721 0.688096
1467 1 0.247357 0.794472 0.602687
1738 1 0.0190816 0.792597 0.683317
1077 1 0.254892 0.791534 0.522656
937 1 0.0243699 0.866506 0.555734
962 1 0.217505 0.92533 0.654793
845 1 0.119958 0.829647 0.505427
19 1 0.077812 0.762933 0.601937
2043 1 0.179629 0.924505 0.513089
128 1 0.0152321 0.975012 0.675139
1846 1 0.205508 0.992284 0.677301
606 1 0.325199 0.895989 0.746533
976 1 0.130625 0.98818 0.994106
1945 1 0.251741 0.782908 0.942906
1307 1 0.227517 0.862775 0.928182
1063 1 0.317373 0.798998 0.752638
353 1 0.197069 0.890416 0.81107
343 1 0.10524 0.921551 0.981806
49 1 0.315792 0.96803 0.787429
1627 1 0.0946269 0.85469 0.928072
1718 1 0.301465 0.778495 0.83622
1527 1 0.277798 0.914351 0.913859
555 1 0.0406441 0.872183 0.759272
1169 1 0.105738 0.800132 0.985096
1811 1 0.119056 0.879558 0.824036
1742 1 0.0306737 0.866403 0.967484
790 1 0.252697 0.842873 0.756347
1401 1 0.156615 0.817642 0.797748
1181 1 0.0574165 0.920548 0.822047
1175 1 0.0940461 0.772886 0.916477
1619 1 0.00749237 0.970806 0.752368
1614 1 -0.000614783 0.821414 0.79968
1140 1 0.161033 0.876706 0.951286
553 1 0.0704492 0.80334 0.766278
928 1 0.154428 0.827713 0.880139
170 1 0.178919 0.799465 0.965481
599 1 0.270987 0.856554 0.865701
1324 1 0.0460127 0.83009 0.871128
1803 1 0.251797 0.979092 0.931572
536 1 0.164951 0.985213 0.796848
1641 1 0.19219 0.926368 0.888772
512 1 0.277247 0.965345 0.998279
211 1 0.247826 0.949522 0.75317
2021 1 0.112269 0.943868 0.86133
1089 1 0.193656 0.936566 0.964506
1590 1 0.331762 0.773491 0.952545
645 1 0.217873 0.781942 0.827162
816 1 0.292426 0.867796 0.964861
1087 1 0.040943 0.917554 0.91429
590 1 0.255685 0.925362 0.836813
1919 1 0.0744553 0.774079 0.831904
427 1 0.396294 0.0287221 0.172328
1494 1 0.394949 0.0451377 0.105097
1145 1 0.619387 0.015386 0.240844
416 1 0.588815 0.0100528 0.138323
1764 1 0.403397 0.242082 0.123617
1536 1 0.406948 0.104804 0.0691114
1820 1 0.602963 0.0749212 0.0794131
960 1 0.627056 0.235256 0.129811
1193 1 0.551316 0.10841 0.0422924
1950 1 0.387637 0.12716 0.132748
1179 1 0.572023 0.199197 0.025268
550 1 0.341748 0.134619 0.020987
116 1 0.395801 0.242626 0.0156363
289 1 0.535445 0.0866224 0.249954
242 1 0.430414 0.161141 0.213763
780 1 0.610094 0.222694 0.225097
1723 1 0.539763 0.04091 0.0474707
1654 1 0.615989 0.100393 0.148507
886 1 0.5613 0.147643 0.173215
1508 1 0.474222 0.0253061 0.201135
230 1 0.359114 0.0646229 0.0163675
1797 1 0.443254 0.233509 0.210948
1115 1 0.462542 0.0823309 0.106747
115 1 0.358971 0.101764 0.222198
1378 1 0.541788 0.0599184 0.122907
488 1 0.426565 0.0913251 0.192411
212 1 0.413931 0.175324 0.0800252
1251 1 0.638411 0.180417 0.174258
694 1 0.657704 0.0389666 0.0381792
34 1 0.475282 0.14476 0.039323
4 1 0.53417 0.135932 0.105307
1524 1 0.477561 0.142689 0.149414
297 1 0.480847 0.206931 0.0911153
409 1 0.355146 0.167253 0.188141
1593 1 0.607496 0.148023 0.0992363
286 1 0.592744 0.137321 0.247473
1427 1 0.525368 0.214193 0.164115
304 1 0.65563 0.109654 0.0423497
1062 1 0.54973 0.045616 0.195127
183 1 0.438093 0.0425355 0.0373415
1585 1 0.631563 0.137858 0.381535
985 1 0.383805 0.22678 0.359416
398 1 0.499826 0.202246 0.431235
1784 1 0.479598 0.131655 0.386613
1972 1 0.537954 0.189634 0.251814
789 1 0.651563 0.231944 0.467874
466 1 0.4648 0.0564832 0.37958
268 1 0.38728 0.22632 0.274915
1989 1 0.640334 0.215873 0.38434
508 1 0.43935 0.0299704 0.445965
722 1 0.428615 0.109313 0.323949
1582 1 0.538999 0.0134294 0.468495
10 1 0.432728 0.145134 0.441748
967 1 0.577814 0.236711 0.417376
150 1 0.496265 0.0793073 0.439516
1796 1 0.616321 0.06458 0.290592
1513 1 0.378894 0.0753118 0.410923
306 1 0.407337 0.0593764 0.278172
952 1 0.543777 0.0382283 0.394323
83 1 0.489543 0.0746637 0.312326
506 1 0.63087 0.136242 0.308562
1273 1 0.608695 0.17689 0.445373
1828 1 0.389753 0.036799 0.350909
1279 1 0.561772 0.105024 0.316639
1001 1 0.34856 0.164509 0.259467
1736 1 0.537519 0.168906 0.33895
849 1 0.412034 0.160802 0.373602
1597 1 0.430284 0.232401 0.424025
129 1 0.584502 0.0761966 0.455652
1558 1 0.525125 0.0122813 0.262096
1924 1 0.559396 0.107007 0.384384
1391 1 0.530164 0.230753 0.490042
459 1 0.514832 0.13957 0.473666
1330 1 0.60943 0.0306583 0.364849
1237 1 0.656293 0.0535048 0.415596
1929 1 0.453524 0.207403 0.334344
1879 1 0.360074 0.125789 0.324815
1778 1 0.47463 0.145618 0.270696
867 1 0.463937 0.0103735 0.296941
447 1 0.641509 0.114018 0.451208
661 1 0.493557 0.233515 0.280957
1715 1 0.664537 0.0293964 0.476606
1192 1 0.603671 0.000335175 0.43638
835 1 0.374641 0.204833 0.498679
1051 1 0.463977 0.164178 0.617234
1285 1 0.36742 0.0266251 0.591819
40 1 0.335858 0.0757843 0.550051
52 1 0.454365 0.198638 0.517493
67 1 0.381011 0.0859026 0.710682
906 1 0.450507 0.0630638 0.680296
1969 1 0.591739 0.130289 0.626685
140 1 0.476033 -0.000272269 0.646311
342 1 0.443963 0.0272882 0.587712
288 1 0.39658 0.162022 0.65439
282 1 0.565747 0.075208 0.715925
1992 1 0.425775 0.0342242 0.517035
1928 1 0.378938 0.0927721 0.615192
2006 1 0.505875 0.0289236 0.708646
1146 1 0.367745 0.236378 0.714199
526 1 0.394926 0.0224566 0.654564
785 1 0.384807 0.112665 0.501061
81 1 0.586146 0.00351731 0.647454
1399 1 0.656278 0.0401834 0.63911
1418 1 0.592307 0.06409 0.602516
541 1 0.580567 0.186379 0.569864
1743 1 0.350123 0.204187 0.609035
257 1 0.521849 0.236663 0.588541
1816 1 0.643661 0.0820544 0.711106
474 1 0.618866 0.216558 0.719233
270 1 0.510233 0.106563 0.643255
110 1 0.541329 0.13735 0.698398
164 1 0.553501 0.19818 0.65444
787 1 0.51199 0.172906 0.560682
74 1 0.662221 0.0721039 0.546529
1745 1 0.528926 0.105233 0.543167
173 1 0.364318 0.149381 0.740755
1576 1 0.650791 0.161955 0.504875
204 1 0.569411 0.0518045 0.523856
181 1 0.471893 0.248553 0.732804
571 1 0.462357 0.0999623 0.585513
1259 1 0.426594 0.226571 0.596131
797 1 0.405193 0.143897 0.565369
1959 1 0.496572 0.0420237 0.523143
1297 1 0.456235 0.123053 0.512994
192 1 0.465 0.179548 0.690278
1289 1 0.431649 0.148743 0.745088
402 1 0.529699 0.0388797 0.619649
315 1 0.404587 0.0123695 0.738042
1667 1 0.614199 0.225226 0.613922
1761 1 0.528624 0.193946 0.746984
1746 1 0.596286 0.145769 0.739639
1817 1 0.588262 0.128006 0.506094
1163 1 0.620374 0.235721 0.529575
1366 1 0.33508 0.0254999 0.70821
973 1 0.627844 0.161251 0.999306
1298 1 0.627538 0.174845 0.929295
187 1 0.530591 0.0586336 0.801009
718 1 0.397383 0.169099 0.912709
701 1 0.435244 0.0722871 0.75326
1432 1 0.500293 0.0922017 0.975748
654 1 0.465839 0.236618 0.825238
647 1 0.647413 0.108778 0.792093
1188 1 0.642573 0.0193105 0.773684
1073 1 0.563064 0.0572679 0.958278
1951 1 0.553881 0.160014 0.916698
704 1 0.544145 0.217057 0.954741
1714 1 0.60725 0.197313 0.789742
534 1 0.503285 0.0600656 0.912599
575 1 0.421404 0.171783 0.990359
214 1 0.404091 0.105319 0.96739
1451 1 0.601639 0.000153014 0.92733
57 1 0.516911 0.20982 0.880559
1252 1 0.536967 0.126197 0.774326
1123 1 0.397748 0.0204152 0.918331
531 1 0.655646 0.225504 0.837111
2036 1 0.564613 0.150525 0.836201
1769 1 0.449222 0.14955 0.828954
1075 1 0.376527 0.0461148 0.810575
1931 1 0.459133 0.126469 0.91416
235 1 0.417653 0.213178 0.771611
390 1 0.47099 0.0693166 0.840312
53 1 0.561489 0.0901978 0.887378
1696 1 0.46781 0.248649 0.987608
497 1 0.383424 0.17922 0.838524
913 1 0.655264 0.0449482 0.968179
1990 1 0.6427 0.0668364 0.858329
717 1 0.621056 0.0922924 0.922498
1429 1 0.430352 0.226792 0.897113
1842 1 0.55579 0.24353 0.833582
890 1 0.342818 0.119022 0.850582
220 1 0.460269 0.0155184 0.952844
1995 1 0.649482 0.41602 0.0803418
348 1 0.528312 0.478546 0.026535
1201 1 0.540784 0.483305 0.142023
1016 1 0.423965 0.373252 0.163613
878 1 0.425438 0.329971 0.234369
1186 1 0.645346 0.410852 -0.00244198
62 1 0.645379 0.31014 0.212363
1589 1 0.616145 0.378681 0.146054
182 1 0.47742 0.403036 0.0138002
1526 1 0.386462 0.480112 0.160015
1206 1 0.611154 0.389029 0.215072
1922 1 0.514647 0.356919 0.0819573
1204 1 0.43404 0.403167 0.230799
100 1 0.580491 0.394686 0.0595603
1874 1 0.511417 0.289806 0.0278589
94 1 0.386858 0.318524 0.136291
666 1 0.357838 0.419198 0.148025
1269 1 0.493178 0.396336 0.187575
1165 1 0.450768 0.335764 0.0861079
370 1 0.593138 0.466041 0.189827
1687 1 0.531244 0.419414 0.123271
1996 1 0.575017 0.325385 0.129297
892 1 0.410346 0.476482 0.0334448
107 1 0.510075 0.263868 0.217328
961 1 0.360275 0.335152 0.0443493
1377 1 0.357523 0.462181 0.219181
1388 1 0.456323 0.298755 0.165508
358 1 0.575728 0.309853 0.0616459