ITEM: TIMESTEP
100000
ITEM: NUMBER OF ATOMS
2048
ITEM: BOX BOUNDS pp pp pp
0.0000000000000000e+00 1.1351867295763070e+01
0.0000000000000000e+00 1.1351867295763070e+01
0.0000000000000000e+00 1.1351867295763070e+01
ITEM: ATOMS id type xs ys zs
33 1 0.252015 0.00084813 0.122054
35 1 0.302446 0.00308252 0.185326
227 1 0.317256 0.247476 0.184484
40 1 0.00472102 0.191193 0.185564
31 1 0.18768 0.00279218 0.186272
62 1 0.0642791 0.184831 0.247679
15 1 0.0605427 0.127343 0.0651532
20 1 0.125071 0.190285 0.0631717
203 1 0.317503 0.248473 0.0559903
32 1 0.125563 0.0586356 0.189486
7 1 0.194159 0.0022528 0.0558518
39 1 0.0619209 0.124529 0.183252
44 1 0.125135 0.186967 0.187499
46 1 0.303194 0.182513 0.124048
34 1 0.315904 0.0651081 0.128976
69 1 0.248842 0.123278 0.247924
8 1 0.124202 0.0609856 0.062941
19 1 0.182841 0.127351 0.0698324
12 1 0.254544 0.0579598 0.0583953
36 1 0.247396 0.0646698 0.187837
24 1 0.249125 0.188548 0.0580198
23 1 0.313727 0.124675 0.0592703
43 1 0.18745 0.121265 0.189846
48 1 0.247207 0.187306 0.189574
225 1 0.248342 0.246884 0.11849
42 1 0.185484 0.188746 0.129257
26 1 0.0574852 0.0620491 0.123294
47 1 0.31447 0.126852 0.190844
41 1 0.119676 0.123068 0.126726
30 1 0.182284 0.0610931 0.123815
45 1 0.248014 0.12388 0.129109
38 1 0.0654736 0.188002 0.128619
17 1 0.12729 0.124777 0.00577662
18 1 0.187167 0.187783 0.00192076
219 1 0.0651227 0.246126 0.194534
223 1 0.187917 0.249214 0.189119
221 1 0.121823 0.250905 0.134121
70 1 0.321669 0.182766 0.248732
65 1 0.118986 0.11602 0.246329
58 1 0.306415 0.0583364 0.249267
2 1 0.0614961 0.0690149 0.00414155
21 1 0.251239 0.122519 0.00363889
96 1 0.249608 0.188066 0.434075
56 1 0.129719 0.0568825 0.310623
77 1 0.126378 0.00112386 0.374958
88 1 0.00660467 0.187364 0.435574
54 1 0.190364 0.0655796 0.24994
63 1 0.0653794 0.122785 0.311602
81 1 0.251593 0.00219305 0.377327
68 1 0.12274 0.188468 0.311963
72 1 0.251566 0.183019 0.310042
83 1 0.31431 0.00350103 0.434409
78 1 0.19056 0.0640916 0.375641
60 1 0.249524 0.0636598 0.309339
67 1 0.184724 0.128609 0.313036
90 1 0.188838 0.190639 0.369478
71 1 0.313652 0.12419 0.307144
86 1 0.0667356 0.18539 0.374569
269 1 0.129098 0.249217 0.372538
64 1 0.0010872 0.186646 0.308649
74 1 0.0648067 0.0631686 0.366312
110 1 0.0658934 0.189483 0.497054
84 1 0.250743 0.0645207 0.439047
89 1 0.125572 0.125683 0.373487
82 1 0.309036 0.0627677 0.373007
87 1 0.0618045 0.124547 0.433351
91 1 0.187408 0.123856 0.434492
93 1 0.247959 0.126658 0.372011
94 1 0.306963 0.193522 0.373912
80 1 0.122837 0.0610412 0.437404
92 1 0.132115 0.185665 0.436593
95 1 0.312373 0.129946 0.436608
59 1 0.317068 0.00148906 0.312896
101 1 0.125882 0.0024419 0.498208
76 1 0.00349387 0.060351 0.429757
109 1 0.00306975 0.128938 0.499497
75 1 0.0632305 -9.93578e-05 0.435984
113 1 0.124909 0.12451 0.495761
114 1 0.195707 0.189135 0.49659
57 1 0.248958 0.00118179 0.252692
85 1 0.00214303 0.121862 0.371158
275 1 0.307384 0.249722 0.439327
293 1 0.128049 0.246068 0.496998
98 1 0.0577587 0.0648528 0.49195
118 1 0.313253 0.187994 0.500211
50 1 0.0598839 0.0574696 0.251116
271 1 0.186852 0.249369 0.436963
289 1 0.00190401 0.247625 0.496555
102 1 0.184557 0.0636304 0.493437
106 1 0.313511 0.0627174 0.498953
97 1 0.00176156 0.0028103 0.497467
66 1 0.184998 0.191072 0.253719
103 1 0.180568 0.00149839 0.562389
104 1 0.126908 0.0640192 0.557741
131 1 0.313593 -0.000420248 0.69338
105 1 0.246548 0.00511055 0.499692
111 1 0.0662538 0.12729 0.55902
124 1 1.52035e-05 0.0638437 0.694508
99 1 0.0620336 0.00672443 0.557403
139 1 0.184065 0.121064 0.687968
116 1 0.127569 0.187242 0.558879
158 1 0.0692012 0.185331 0.749984
125 1 0.121088 0.00257474 0.618706
108 1 0.248793 0.0569124 0.567166
130 1 0.316294 0.0678516 0.624082
137 1 0.128102 0.121851 0.622002
115 1 0.187599 0.124481 0.565849
119 1 0.314777 0.124411 0.560824
134 1 0.0675759 0.185815 0.625955
120 1 0.252467 0.184782 0.56867
297 1 0.258518 0.244671 0.504346
132 1 0.251474 0.0562167 0.686715
126 1 0.188549 0.0623062 0.624098
123 1 0.0708662 0.00216138 0.691451
122 1 0.0635813 0.0680758 0.620942
128 1 0.128052 0.0584167 0.689107
135 1 0.0629009 0.124506 0.69275
138 1 0.187255 0.184394 0.625213
141 1 0.248245 0.12231 0.626974
142 1 0.315804 0.190476 0.623942
143 1 0.323051 0.12461 0.688114
144 1 0.253678 0.183128 0.69355
140 1 0.129055 0.184497 0.688217
107 1 0.316045 0.00120202 0.566316
317 1 0.128362 0.240935 0.624829
133 1 0.00446199 0.13064 0.624813
319 1 0.185366 0.250636 0.685369
321 1 0.248769 0.246625 0.623362
100 1 0.0010421 0.0624674 0.569963
315 1 0.0598362 0.243809 0.689923
166 1 0.314036 0.192148 0.751524
341 1 0.130493 0.249046 0.74766
295 1 0.194394 0.24886 0.563821
291 1 0.0637131 0.243051 0.564071
345 1 0.246911 0.246021 0.751097
112 1 0.00147348 0.185112 0.559001
150 1 0.188474 0.0634444 0.749414
154 1 0.314198 0.0618586 0.749256
145 1 0.00282426 -0.00238115 0.748601
165 1 0.248373 0.123333 0.747514
117 1 0.251667 0.123533 0.504328
179 1 0.318939 0.0004108 0.941131
146 1 0.0638229 0.0613349 0.750852
147 1 0.059878 0.00511603 0.814179
156 1 0.251174 0.0643469 0.81223
367 1 0.18286 0.247579 0.936705
363 1 0.0596413 0.25076 0.939621
167 1 0.309765 0.129388 0.808771
177 1 0.252133 0.00229886 0.878227
164 1 0.124623 0.185605 0.81237
175 1 0.188217 0.000515 0.940918
339 1 0.0601537 0.240085 0.810337
152 1 0.12713 0.0598049 0.815988
170 1 0.0626755 0.0627728 0.873112
163 1 0.180035 0.121313 0.814744
178 1 0.309694 0.0714627 0.872528
159 1 0.0658384 0.12181 0.810853
168 1 0.249716 0.187406 0.809882
192 1 0.24701 0.189591 0.945446
188 1 0.123916 0.1786 0.939955
176 1 0.127044 0.0619756 0.938976
174 1 0.18991 0.0617979 0.877104
180 1 0.253582 0.064768 0.940566
183 1 0.0587138 0.124447 0.941055
185 1 0.123238 0.12421 0.877193
189 1 0.250975 0.128902 0.870937
191 1 0.309876 0.128495 0.938655
186 1 0.183062 0.185094 0.878483
155 1 0.312784 0.0077411 0.814721
182 1 0.0586806 0.186402 0.880012
187 1 0.191931 0.127422 0.939866
190 1 0.313646 0.193716 0.876207
343 1 0.191004 0.248621 0.81226
151 1 0.190002 0.00194994 0.812603
10 1 0.317185 0.062017 0.999441
369 1 0.247136 0.244342 0.877554
365 1 0.12317 0.243844 0.875713
14 1 0.0597925 0.191117 0.998099
6 1 0.18639 0.0644062 0.998623
197 1 0.123511 0.246523 0.99764
22 1 0.314992 0.189467 0.997604
162 1 0.182175 0.184831 0.756831
161 1 0.124697 0.119006 0.751304
217 1 0.00516244 0.252472 0.125614
200 1 0.127706 0.315384 0.0660478
441 1 0.244267 0.498911 0.245818
207 1 0.0663757 0.376005 0.0674228
250 1 0.308596 0.315521 0.247517
234 1 0.189922 0.444029 0.130585
195 1 0.0600071 0.250687 0.0642104
235 1 0.190702 0.377714 0.18118
249 1 0.251074 0.252575 0.249018
239 1 0.313003 0.379174 0.186348
232 1 0.00235718 0.43554 0.189091
204 1 0.247939 0.316644 0.0659907
233 1 0.128005 0.380063 0.123442
211 1 0.186504 0.377959 0.0627786
201 1 0.246529 0.256002 0.0023707
212 1 0.121224 0.440571 0.0589389
215 1 0.309788 0.374527 0.0627218
238 1 0.315923 0.435342 0.118427
230 1 0.0639512 0.440151 0.123121
231 1 0.0674027 0.374295 0.185805
216 1 0.249286 0.44061 0.0613645
224 1 0.128479 0.316293 0.185001
236 1 0.126965 0.439145 0.192615
220 1 0.0070031 0.316697 0.192547
222 1 0.187667 0.312974 0.125815
228 1 0.251536 0.313576 0.186452
218 1 0.0667642 0.311498 0.124756
226 1 0.311938 0.304286 0.120999
237 1 0.25522 0.373415 0.128368
240 1 0.252346 0.44009 0.184562
229 1 0.00333299 0.372447 0.12904
194 1 0.0675002 0.317941 0.000223901
242 1 0.0727985 0.31616 0.247035
261 1 0.25054 0.376255 0.24865
246 1 0.185625 0.316762 0.245067
262 1 0.313865 0.439301 0.249427
199 1 0.184667 0.250697 0.0671239
208 1 0.00163683 0.437387 0.0628229
202 1 0.315591 0.314393 0.00351211
393 1 0.25447 0.499377 0.00196726
198 1 0.187239 0.315846 0.00455896
205 1 0.00362115 0.37337 0.00172886
247 1 0.192197 0.254359 0.313572
244 1 0.00488557 0.317228 0.316876
257 1 0.12916 0.376349 0.252917
248 1 0.12511 0.312142 0.317288
277 1 0.00133261 0.38531 0.377474
252 1 0.249227 0.31692 0.313476
251 1 0.311491 0.250984 0.308633
255 1 0.0637857 0.378034 0.315314
302 1 0.0609835 0.438607 0.495018
260 1 0.127494 0.436583 0.311302
259 1 0.187733 0.377066 0.314221
286 1 0.310191 0.434671 0.379767
443 1 0.312213 0.500846 0.311237
267 1 0.0637614 0.250426 0.433827
284 1 0.120913 0.438784 0.438209
301 1 0.00334533 0.376035 0.498692
274 1 0.315413 0.315346 0.37246
266 1 0.0605429 0.319976 0.376608
281 1 0.124216 0.3781 0.379836
270 1 0.188665 0.310555 0.377765
285 1 0.253572 0.371903 0.377692
282 1 0.181536 0.438399 0.379934
263 1 0.308626 0.377346 0.30794
278 1 0.0648202 0.446527 0.372832
264 1 0.249897 0.440635 0.316131
288 1 0.246875 0.438428 0.435204
272 1 0.124394 0.312332 0.436894
287 1 0.307951 0.374383 0.438829
276 1 0.249124 0.308072 0.441852
243 1 0.0607189 0.24857 0.308078
279 1 0.0618131 0.377297 0.438904
283 1 0.191506 0.377528 0.441537
273 1 0.252877 0.255374 0.374431
265 1 0.00285175 0.25631 0.371478
245 1 0.129625 0.252668 0.251094
256 1 0.00307463 0.437286 0.311113
254 1 0.0652463 0.437304 0.25189
306 1 0.190653 0.439158 0.501057
463 1 0.18888 0.501107 0.440682
439 1 0.189234 0.498728 0.310974
268 1 -0.00222549 0.315323 0.434134
489 1 0.255334 0.492717 0.500395
305 1 0.125836 0.378805 0.498077
310 1 0.305601 0.432663 0.497442
253 1 0.00635242 0.374481 0.255054
258 1 0.191297 0.436408 0.253
309 1 0.246597 0.373854 0.503789
299 1 0.318869 0.250221 0.56211
325 1 0.00215033 0.374824 0.62264
336 1 0.248483 0.435544 0.683604
296 1 0.123112 0.308099 0.556584
303 1 0.0637431 0.375267 0.560719
308 1 0.121534 0.440413 0.561922
312 1 0.246893 0.43441 0.567195
323 1 0.318472 0.251253 0.686643
304 1 0.00161159 0.435238 0.557554
349 1 0.0046321 0.374432 0.743654
316 1 0.00262737 0.311056 0.690436
300 1 0.251403 0.311014 0.562117
314 1 0.0640793 0.304141 0.62242
307 1 0.184064 0.372998 0.559895
326 1 0.0582679 0.440086 0.621825
311 1 0.311724 0.381748 0.568268
334 1 0.31087 0.43667 0.626524
357 1 0.245311 0.373952 0.744185
331 1 0.182912 0.375075 0.681436
320 1 0.122965 0.306522 0.685701
322 1 0.312138 0.312988 0.619571
327 1 0.0685521 0.3769 0.68812
329 1 0.120682 0.372338 0.618119
318 1 0.187799 0.310417 0.622934
332 1 0.125666 0.444016 0.684053
330 1 0.185108 0.438421 0.625167
333 1 0.245318 0.376703 0.626391
290 1 0.0604733 0.311244 0.499251
324 1 0.250494 0.3052 0.682942
335 1 0.313399 0.371943 0.681955
515 1 0.313566 0.499054 0.685511
328 1 0.00631505 0.433997 0.686934
491 1 0.313208 0.496455 0.556266
487 1 0.188304 0.500591 0.561
483 1 0.0632744 0.499984 0.560486
298 1 0.314181 0.310498 0.502284
294 1 0.192685 0.310652 0.502412
350 1 0.0646706 0.441861 0.746055
342 1 0.186454 0.318236 0.743917
358 1 0.309115 0.434425 0.744475
292 1 0.00272136 0.307127 0.564127
346 1 0.311129 0.312835 0.747806
485 1 0.127376 0.49725 0.50344
344 1 0.121354 0.301985 0.809891
347 1 0.309814 0.252031 0.810659
352 1 0.00329381 0.44141 0.806616
355 1 0.184851 0.368671 0.814162
385 1 0.00460192 0.495845 0.997427
351 1 0.0596854 0.38083 0.813646
210 1 0.187847 0.439413 0.993578
340 1 0.00430112 0.316126 0.811791
362 1 0.0625517 0.308418 0.876254
384 1 0.250396 0.435999 0.936215
348 1 0.247978 0.310436 0.817297
539 1 0.309338 0.497589 0.809335
359 1 0.306922 0.374071 0.813359
356 1 0.123936 0.437077 0.814968
360 1 0.248385 0.432415 0.807015
382 1 0.314636 0.437119 0.871103
371 1 0.306758 0.253221 0.942172
375 1 0.065176 0.371537 0.938184
368 1 0.124535 0.307604 0.938784
379 1 0.185001 0.373331 0.936675
370 1 0.309534 0.310334 0.877766
372 1 0.248674 0.312479 0.937699
377 1 0.123074 0.367009 0.871827
366 1 0.187706 0.309411 0.872589
383 1 0.311891 0.375177 0.938198
374 1 0.0632442 0.441428 0.875231
381 1 0.253165 0.378697 0.873927
378 1 0.191556 0.439499 0.877284
380 1 0.123453 0.439311 0.932036
209 1 0.128027 0.376565 1.00142
563 1 0.316091 0.499937 0.933992
213 1 0.250089 0.375555 0.997265
531 1 0.0645661 0.5006 0.809367
557 1 0.123891 0.49844 0.872416
214 1 0.308252 0.437986 0.993345
373 1 0.00998059 0.376132 0.876921
354 1 0.184257 0.431863 0.748473
206 1 0.0618265 0.435788 0.997052
561 1 0.255467 0.497857 0.878211
389 1 0.123903 0.500376 0.997397
353 1 0.118811 0.370237 0.753622
338 1 0.0646044 0.309174 0.75414
424 1 0.00231773 0.686295 0.187722
388 1 0.00415984 0.563972 0.0578895
387 1 0.0633583 0.502223 0.0665557
454 1 0.312027 0.687084 0.249746
421 1 0.0020104 0.618546 0.121495
400 1 0.00659478 0.687411 0.0617351
404 1 0.126833 0.68746 0.0609165
408 1 0.24685 0.691041 0.059915
413 1 0.126659 0.505207 0.125923
432 1 0.254323 0.684685 0.185968
410 1 0.0659836 0.564356 0.12384
611 1 0.313472 0.745701 0.186265
418 1 0.313991 0.558318 0.120963
399 1 0.064156 0.622268 0.0627855
417 1 0.251188 0.498534 0.117044
392 1 0.124697 0.561773 0.0652404
396 1 0.243448 0.56756 0.0605535
423 1 0.0629698 0.625222 0.18409
425 1 0.12475 0.624084 0.123519
403 1 0.1831 0.626091 0.0623188
407 1 0.311085 0.621197 0.0645568
422 1 0.0639469 0.688374 0.126874
420 1 0.252531 0.55907 0.180909
430 1 0.312915 0.685782 0.123254
427 1 0.180866 0.630086 0.18175
406 1 0.311767 0.683471 0.000744739
416 1 0.124384 0.563667 0.189234
414 1 0.190946 0.560158 0.125958
428 1 0.121218 0.689411 0.187756
426 1 0.190949 0.691619 0.122997
429 1 0.248392 0.622563 0.122757
431 1 0.318304 0.625315 0.181813
397 1 0.00419451 0.62567 -8.47447e-05
411 1 0.0659358 0.501071 0.183561
453 1 0.244106 0.627201 0.243848
450 1 0.184209 0.684788 0.247995
395 1 0.31283 0.502816 0.06055
415 1 0.182336 0.502618 0.191706
419 1 0.313264 0.505535 0.182206
391 1 0.189302 0.502379 0.0634909
442 1 0.310135 0.567157 0.247159
607 1 0.18568 0.748669 0.185608
409 1 0.00111456 0.502143 0.136463
587 1 0.311351 0.746005 0.0659197
601 1 0.00268019 0.748798 0.12382
583 1 0.188424 0.748444 0.0635515
625 1 0.00292694 0.748139 0.249028
629 1 0.127461 0.746577 0.245759
401 1 0.125381 0.62434 0.00354823
394 1 0.31341 0.566772 0.00106119
405 1 0.253011 0.62726 0.000889942
581 1 0.130187 0.750691 0.00165993
635 1 0.307744 0.748108 0.310937
434 1 0.0588463 0.56358 0.249732
475 1 0.189121 0.621425 0.436513
444 1 0.250429 0.565439 0.311607
438 1 0.186457 0.568314 0.251908
447 1 0.0595324 0.62425 0.314335
451 1 0.182416 0.629597 0.314251
467 1 0.312955 0.501998 0.436833
455 1 0.307157 0.627873 0.310817
494 1 0.0636152 0.69025 0.499948
452 1 0.121588 0.6888 0.315091
461 1 0.122696 0.504232 0.376561
456 1 0.246597 0.685256 0.309495
476 1 0.114975 0.688367 0.434952
498 1 0.183047 0.681956 0.49461
653 1 0.122003 0.748663 0.378452
440 1 0.119657 0.563828 0.314951
466 1 0.309656 0.562479 0.37397
474 1 0.179162 0.687289 0.377661
470 1 0.0573778 0.684878 0.375066
459 1 0.0588368 0.507099 0.436357
458 1 0.0565562 0.56715 0.378151
465 1 0.245269 0.504767 0.374245
462 1 0.183402 0.566604 0.369034
468 1 0.253792 0.559511 0.436497
479 1 0.314776 0.625147 0.435856
473 1 0.121066 0.622518 0.376152
477 1 0.248026 0.621631 0.37534
471 1 0.061216 0.624476 0.445418
478 1 0.311057 0.686272 0.371947
480 1 0.249569 0.688036 0.436245
464 1 0.12269 0.561678 0.437963
435 1 0.0585325 0.506736 0.313851
657 1 0.248922 0.742842 0.377446
486 1 0.192794 0.559761 0.500668
677 1 0.128544 0.75005 0.496377
631 1 0.188123 0.744157 0.316454
627 1 0.0644751 0.751763 0.311814
659 1 0.311946 0.748991 0.438913
501 1 0.256501 0.620305 0.496361
502 1 0.30684 0.684307 0.49921
445 1 0.00375573 0.625996 0.251768
449 1 0.121311 0.626462 0.256986
437 1 0.120376 0.50577 0.253851
446 1 0.0613009 0.689125 0.250881
541 1 -0.000185813 0.630595 0.749567
488 1 0.119196 0.564215 0.569024
507 1 0.058805 0.508446 0.685754
679 1 0.18553 0.740014 0.561019
523 1 0.189169 0.62306 0.685227
500 1 0.122003 0.68092 0.563114
499 1 0.188411 0.623928 0.562061
519 1 0.0664258 0.629643 0.690541
525 1 0.248932 0.621357 0.62506
528 1 0.247983 0.684163 0.685645
537 1 0.252506 0.503487 0.745126
510 1 0.190699 0.562197 0.618876
524 1 0.129711 0.684984 0.691237
495 1 0.0604721 0.625026 0.562318
521 1 0.125939 0.622093 0.629881
492 1 0.255998 0.56008 0.559707
526 1 0.31193 0.693809 0.622361
522 1 0.186814 0.682345 0.623587
504 1 0.249562 0.681502 0.566124
503 1 0.311109 0.624964 0.564718
533 1 0.128766 0.504942 0.746382
516 1 0.249672 0.561861 0.686931
506 1 0.060053 0.566506 0.627071
512 1 0.128052 0.566239 0.690459
518 1 0.0616109 0.689971 0.632078
527 1 0.312317 0.627331 0.684502
514 1 0.315125 0.560615 0.621981
482 1 0.0615968 0.560853 0.504173
701 1 0.127381 0.746501 0.627725
549 1 0.256016 0.628515 0.751318
705 1 0.249209 0.74831 0.618536
509 1 0.132028 0.504662 0.624332
529 1 0.00320352 0.500034 0.746839
675 1 0.0669887 0.746852 0.55918
534 1 0.192164 0.569871 0.749686
513 1 0.252565 0.502503 0.620854
511 1 0.188214 0.507107 0.686579
496 1 0.0060412 0.688261 0.554365
681 1 0.245416 0.751385 0.498609
707 1 0.312913 0.751075 0.687805
517 1 0.00110939 0.626106 0.623082
550 1 0.311107 0.685719 0.750265
729 1 0.245605 0.751417 0.743695
490 1 0.311571 0.559685 0.501424
497 1 0.126016 0.620849 0.502016
556 1 0.000893376 0.559621 0.933197
532 1 0.00408912 0.565421 0.810381
755 1 0.316567 0.752806 0.939028
386 1 0.0621166 0.562382 1.00017
540 1 0.256481 0.56402 0.811047
551 1 0.311255 0.62337 0.816672
543 1 0.0690357 0.630381 0.81473
568 1 0.00354206 0.684704 0.934727
530 1 0.0652165 0.564199 0.751125
575 1 0.315476 0.626 0.940126
398 1 0.0655474 0.689963 0.999791
536 1 0.135549 0.565563 0.812688
558 1 0.198845 0.558955 0.875838
547 1 0.19432 0.627736 0.811089
566 1 0.0652644 0.686883 0.876065
548 1 0.127996 0.692545 0.815928
535 1 0.192381 0.501392 0.814533
570 1 0.193119 0.689194 0.871708
552 1 0.252471 0.689246 0.813701
554 1 0.0710617 0.564866 0.865909
565 1 0.0042616 0.623671 0.866812
564 1 0.259537 0.561504 0.936043
560 1 0.12655 0.563184 0.931615
567 1 0.0590493 0.62165 0.933093
569 1 0.132365 0.630529 0.872183
562 1 0.31382 0.56068 0.875931
573 1 0.252375 0.624276 0.877224
574 1 0.307796 0.688408 0.874742
571 1 0.188103 0.624046 0.943585
572 1 0.124716 0.682613 0.935827
576 1 0.24881 0.689273 0.937242
555 1 0.0629439 0.502752 0.930418
559 1 0.186506 0.499656 0.935685
544 1 0.00690789 0.691539 0.817605
542 1 0.068954 0.690537 0.752377
731 1 0.312122 0.748031 0.817246
546 1 0.189413 0.68667 0.752215
402 1 0.187431 0.691781 0.998909
390 1 0.18538 0.557124 0.995257
545 1 0.127053 0.625401 0.751878
538 1 0.31553 0.563487 0.754749
582 1 0.189828 0.814893 -0.000753999
605 1 0.123959 0.750261 0.129471
609 1 0.246131 0.757481 0.122912
591 1 0.0601552 0.877902 0.0566349
584 1 0.12834 0.808373 0.0615575
633 1 0.248574 0.751066 0.243035
580 1 0.00851396 0.814247 0.0589543
599 1 0.319138 0.878927 0.0606815
612 1 0.245274 0.815949 0.184181
634 1 0.309732 0.809492 0.244729
620 1 0.12868 0.936623 0.186448
603 1 0.0649908 0.750003 0.187984
608 1 0.132862 0.814009 0.192656
617 1 0.127265 0.872477 0.118482
602 1 0.0683384 0.815812 0.128121
595 1 0.184026 0.873986 0.0621046
588 1 0.249862 0.817969 0.0610968
596 1 0.127652 0.936397 0.0603108
600 1 0.252052 0.940361 0.0644841
614 1 0.0666654 0.932807 0.12509
618 1 0.18638 0.945383 0.121044
622 1 0.312043 0.935151 0.127814
579 1 0.0667892 0.749644 0.0611338
615 1 0.0617085 0.873225 0.185944
606 1 0.184461 0.813098 0.124882
619 1 0.185952 0.87627 0.193964
613 1 0.00312456 0.873118 0.120459
624 1 0.246524 0.939444 0.186284
621 1 0.249199 0.878471 0.126736
610 1 0.313394 0.812116 0.125224
623 1 0.312869 0.880827 0.185127
646 1 0.314927 0.938204 0.248432
29 1 0.121104 0.999848 0.119919
3 1 0.0588195 0.995798 0.0597659
25 1 -0.0014284 0.99696 0.119645
590 1 0.0632395 0.938813 0.00192141
11 1 0.316661 0.993398 0.0590854
27 1 0.0623269 0.996746 0.181587
49 1 -0.00151988 0.996014 0.244988
645 1 0.257507 0.873902 0.246901
597 1 0.247565 0.877901 0.00374699
594 1 0.186555 0.934378 -0.0001648
5 1 0.126618 0.999752 0.00333636
51 1 0.0621167 0.993434 0.312309
651 1 0.0593183 0.751042 0.435386
636 1 0.251379 0.809502 0.318972
661 1 0.000131764 0.873667 0.380188
642 1 0.189567 0.934317 0.254957
647 1 0.31257 0.868218 0.310392
644 1 0.123477 0.936229 0.311843
630 1 0.18898 0.808322 0.259197
663 1 0.0681488 0.879718 0.435717
632 1 0.124333 0.813515 0.316752
654 1 0.186018 0.813915 0.376988
658 1 0.308001 0.806771 0.37653
639 1 0.0608462 0.872127 0.315662
665 1 0.131531 0.884439 0.375205
643 1 0.195403 0.873233 0.319793
648 1 0.249489 0.935944 0.315747
655 1 0.188874 0.750859 0.43849
628 1 7.66476e-05 0.815453 0.313729
672 1 0.254104 0.94525 0.444948
670 1 0.313515 0.93723 0.38057
73 1 0.00814066 0.994224 0.373294
656 1 0.121366 0.817044 0.431271
660 1 0.252233 0.807963 0.438199
650 1 0.0592555 0.808301 0.372566
667 1 0.189287 0.873572 0.443741
669 1 0.253183 0.872286 0.385942
662 1 0.0654141 0.935462 0.376921
668 1 0.126335 0.936577 0.439952
671 1 0.318973 0.871007 0.440819
666 1 0.192216 0.935345 0.383191
685 1 0.00487483 0.874981 0.494099
79 1 0.186869 0.997516 0.440251
674 1 0.058098 0.810845 0.500145
55 1 0.189031 0.997611 0.313357
626 1 0.0638493 0.81317 0.250096
638 1 0.0581546 0.932612 0.249467
693 1 0.252312 0.872139 0.498822
682 1 0.316104 0.807808 0.497301
690 1 0.184011 0.938057 0.498533
53 1 0.125871 0.995261 0.254801
641 1 0.123058 0.877719 0.251144
697 1 0.00282451 0.750884 0.629109
703 1 0.192242 0.749689 0.686008
153 1 0.24791 0.999077 0.750094
699 1 0.0653952 0.755532 0.690891
694 1 0.311447 0.944264 0.504589
726 1 0.190071 0.820528 0.7494
720 1 0.257469 0.934483 0.692487
127 1 0.188369 0.997994 0.677592
688 1 0.00270745 0.943767 0.558393
680 1 0.128182 0.807871 0.558418
684 1 0.245722 0.80939 0.559864
687 1 0.0622082 0.881123 0.559428
691 1 0.191148 0.875449 0.560407
714 1 0.187387 0.937196 0.617551
695 1 0.316191 0.874528 0.560781
719 1 0.313926 0.8693 0.689074
692 1 0.123157 0.936512 0.564225
715 1 0.190459 0.879109 0.681171
696 1 0.242542 0.942541 0.55801
708 1 0.244585 0.811988 0.679878
698 1 0.0655236 0.811283 0.623448
704 1 0.12954 0.813626 0.688697
718 1 0.313568 0.931913 0.628175
706 1 0.308085 0.810255 0.626084
713 1 0.121487 0.874824 0.624817
702 1 0.185759 0.813474 0.623717
710 1 0.0678239 0.937794 0.627777
711 1 0.0704917 0.875909 0.69193
716 1 0.129656 0.93719 0.680931
717 1 0.248429 0.877938 0.617852
721 1 0.00456676 0.75174 0.749345
683 1 0.313774 0.753698 0.561027
733 1 0.0011318 0.878005 0.749844
712 1 0.00363985 0.938935 0.686694
676 1 0.00597809 0.807192 0.564182
700 1 0.00497282 0.813934 0.691889
121 1 0.00489227 0.999652 0.625775
129 1 0.256252 0.997061 0.630745
678 1 0.187676 0.810608 0.499839
709 1 0.00591561 0.871077 0.632295
738 1 0.187855 0.939269 0.744398
725 1 0.12786 0.748957 0.747983
149 1 0.131359 0.997701 0.745034
689 1 0.124459 0.873772 0.504462
686 1 0.0648192 0.94548 0.501089
741 1 0.258775 0.87176 0.74757
723 1 0.0645619 0.749104 0.816781
760 1 0.00150397 0.93455 0.937409
758 1 0.0658152 0.93948 0.87478
757 1 0.00638292 0.875163 0.875817
722 1 0.0704563 0.813777 0.750679
753 1 0.248918 0.749612 0.875731
747 1 0.0662007 0.750622 0.94151
768 1 0.253452 0.935765 0.934516
743 1 0.308758 0.880227 0.813597
767 1 0.306546 0.872063 0.936616
746 1 0.0671823 0.817264 0.877767
728 1 0.130033 0.815461 0.812947
764 1 0.125311 0.938557 0.937995
735 1 0.0695612 0.88209 0.808265
739 1 0.190731 0.877107 0.81161
750 1 0.190988 0.809443 0.872147
732 1 0.25533 0.811384 0.811723
762 1 0.184769 0.932348 0.878432
740 1 0.129455 0.942445 0.815924
730 1 0.315506 0.809415 0.751665
744 1 0.248007 0.939304 0.817102
766 1 0.311725 0.939314 0.877661
752 1 0.129411 0.812605 0.940296
765 1 0.248664 0.873048 0.874384
759 1 0.0640459 0.871572 0.939807
761 1 0.128501 0.873244 0.879821
763 1 0.188553 0.873753 0.940245
756 1 0.244861 0.810727 0.933741
754 1 0.314364 0.813795 0.87426
598 1 0.316856 0.935249 0.999485
173 1 0.127151 0.998215 0.878774
751 1 0.186875 0.749989 0.936753
736 1 0.00208537 0.935245 0.812824
745 1 0.000636998 0.75419 0.877941
727 1 0.185925 0.751676 0.809654
724 1 0.00454828 0.814171 0.809214
749 1 0.127183 0.754036 0.871916
585 1 0.252317 0.752598 0.997467
171 1 0.0636769 0.997837 0.938851
586 1 0.312933 0.819213 0.994782
589 1 0.000524695 0.87457 0.997663
578 1 0.0653682 0.813211 0.99918
593 1 0.12539 0.875032 0.99747
9 1 0.252709 0.997976 0.996272
737 1 0.128001 0.877106 0.753995
742 1 0.312472 0.946779 0.758518
734 1 0.0656747 0.94366 0.75182
772 1 0.37607 0.0619981 0.0646975
955 1 0.554005 0.247185 0.185772
776 1 0.497343 0.0653834 0.0659064
774 1 0.556476 0.0600728 0.00235601
778 1 0.633934 0.0685475 0.0647683
792 1 0.37832 0.0580898 0.189575
802 1 0.376355 0.177091 0.188223
796 1 0.501647 0.0675046 0.197093
806 1 0.499358 0.184454 0.195035
783 1 0.496283 0.126782 0.00377396
798 1 0.626742 0.0569144 0.192381
794 1 0.562427 0.062431 0.126877
781 1 0.435887 0.119914 0.0617375
803 1 0.498316 0.127343 0.125559
786 1 0.499621 0.186338 0.0665524
785 1 0.564636 0.119172 0.0658698
782 1 0.377453 0.185116 0.0622433
801 1 0.436047 0.12273 0.191958
804 1 0.56029 0.184543 0.125557
788 1 0.621716 0.184633 0.0650824
790 1 0.438719 0.0649785 0.130656
799 1 0.374247 0.118192 0.127305
805 1 0.564336 0.124717 0.19269
807 1 0.627406 0.121256 0.133871
808 1 0.63119 0.188966 0.193248
800 1 0.435161 0.182227 0.125883
773 1 0.497563 0.00532393 0.00453623
769 1 0.378866 0.00215422 0.00178139
795 1 0.561764 0.00463726 0.194397
793 1 0.500771 0.00299991 0.131278
933 1 0.499971 0.245439 0.0013825
957 1 0.624102 0.239597 0.124722
771 1 0.436452 0.00135847 0.0751397
777 1 0.617728 0.00246678 0.0041231
937 1 0.622644 0.251288 0.0059648
770 1 0.434757 0.0634306 0.000690088
812 1 0.377815 0.0579752 0.312622
820 1 0.430544 0.191886 0.250561
823 1 0.497642 0.125436 0.256925
860 1 0.44165 0.18747 0.498933
832 1 0.376285 0.0683612 0.435096
825 1 0.561289 0.120843 0.312283
818 1 0.626639 0.0606217 0.313421
842 1 0.37873 0.195835 0.439782
821 1 0.435011 0.127051 0.31549
826 1 0.493526 0.192733 0.308737
838 1 0.629692 0.0591042 0.431316
847 1 0.626204 0.128995 0.372912
816 1 0.496823 0.0653373 0.314233
836 1 0.50119 0.0664228 0.437191
834 1 0.56348 0.0651142 0.376651
839 1 0.368816 0.125801 0.370747
843 1 0.496246 0.12666 0.370976
822 1 0.373572 0.191254 0.316162
846 1 0.503651 0.186951 0.433771
840 1 0.438005 0.191692 0.371526
844 1 0.557756 0.182016 0.368772
828 1 0.624032 0.188715 0.310613
848 1 0.616568 0.190714 0.436103
841 1 0.439455 0.126467 0.441882
845 1 0.559742 0.126314 0.435777
830 1 0.437683 0.0651602 0.376855
867 1 0.624608 0.129556 0.497259
859 1 0.371966 0.125636 0.49795
833 1 0.497556 0.000436424 0.378069
854 1 0.568357 0.0586883 0.49093
849 1 0.376328 0.00510922 0.496587
810 1 0.435798 0.0601579 0.25329
850 1 0.440555 0.0649626 0.498346
997 1 0.622012 0.248027 0.372486
993 1 0.503265 0.248894 0.378
811 1 0.443402 0.000956486 0.314672
809 1 0.377079 -0.000626212 0.254016
829 1 0.376601 0.00200139 0.377642
864 1 0.563178 0.18672 0.498955
819 1 0.379561 0.12565 0.256469
824 1 0.559509 0.18247 0.25631
827 1 0.630644 0.126222 0.259716
814 1 0.568087 0.0643959 0.253104
873 1 0.501701 -0.000849857 0.629492
851 1 0.438096 0.00163724 0.563679
858 1 0.628023 0.056239 0.55878
852 1 0.376774 0.0626722 0.559833
856 1 0.498915 0.0643704 0.565161
865 1 0.565993 0.124279 0.569132
862 1 0.377823 0.185632 0.561642
884 1 0.563864 0.189806 0.63045
861 1 0.437483 0.125472 0.560673
900 1 0.437842 0.186343 0.751545
888 1 0.631682 0.183368 0.68997
870 1 0.435131 0.0648224 0.625121
874 1 0.561876 0.0626492 0.627286
887 1 0.625011 0.116709 0.629787
879 1 0.378652 0.125135 0.622054
880 1 0.443243 0.185611 0.624832
883 1 0.500648 0.120475 0.630679
877 1 0.629113 0.00234 0.62661
866 1 0.501068 0.182743 0.559976
868 1 0.619307 0.18794 0.565816
872 1 0.375164 0.0575435 0.692204
878 1 0.624227 0.0631228 0.692808
881 1 0.441319 0.118382 0.691651
876 1 0.501731 0.058322 0.68963
885 1 0.563325 0.130246 0.68481
886 1 0.503244 0.189065 0.682594
882 1 0.380997 0.188967 0.68215
1033 1 0.503393 0.247199 0.618776
875 1 0.567485 0.00160273 0.690784
1011 1 0.439795 0.250382 0.563943
904 1 0.561177 0.18858 0.748851
1017 1 0.623695 0.247531 0.500706
903 1 0.503393 0.124833 0.743031
1037 1 0.623481 0.248404 0.629264
1015 1 0.564044 0.249779 0.557284
863 1 0.506117 0.12098 0.503902
1013 1 0.501327 0.24607 0.502631
892 1 0.377599 0.0637405 0.80951
913 1 0.501537 0.000138226 0.878269
909 1 0.37422 0.00540335 0.877816
901 1 0.441408 0.128025 0.813723
905 1 0.569192 0.12741 0.817193
898 1 0.623759 0.0588446 0.815518
911 1 0.43804 0.00561542 0.938243
908 1 0.6297 0.187126 0.81335
1077 1 0.627149 0.248334 0.876231
902 1 0.374652 0.18954 0.814597
1057 1 0.630169 0.247142 0.751665
928 1 0.627731 0.183902 0.941686
920 1 0.433441 0.188421 0.87998
919 1 0.369868 0.126224 0.870833
896 1 0.502121 0.0666623 0.810264
914 1 0.563727 0.0574471 0.877946
906 1 0.506856 0.185568 0.814015
927 1 0.625801 0.130174 0.878884
912 1 0.37547 0.0703882 0.937354
918 1 0.627162 0.0624291 0.937272
923 1 0.502244 0.121431 0.88158
924 1 0.562033 0.185139 0.877802
926 1 0.499297 0.188371 0.942611
925 1 0.558973 0.123484 0.942623
921 1 0.437974 0.126191 0.93845
916 1 0.498596 0.0626562 0.937803
922 1 0.375193 0.190895 0.93895
910 1 0.437671 0.0644573 0.872918
890 1 0.437141 0.0641975 0.751884
891 1 0.435418 0.00275053 0.816051
894 1 0.56707 0.059623 0.753336
917 1 0.627859 0.00103778 0.878399
787 1 0.626687 0.12429 1.00072
1051 1 0.436328 0.247093 0.811733
1073 1 0.501586 0.246424 0.876911
889 1 0.373882 2.88326e-05 0.755452
779 1 0.371744 0.126732 1.00076
893 1 0.499385 0.00281286 0.752085
1055 1 0.566146 0.248386 0.815307
929 1 0.373401 0.249889 1.00048
780 1 0.429178 0.186953 0.997306
784 1 0.565726 0.189028 0.999256
899 1 0.375249 0.126379 0.756769
907 1 0.629818 0.125644 0.75372
931 1 0.437699 0.248252 0.0604801
947 1 0.622914 0.382509 0.000626178
965 1 0.561331 0.374317 0.192251
941 1 0.442387 0.377707 0.0607886
938 1 0.625973 0.316104 0.0595522
962 1 0.384376 0.440385 0.181359
945 1 0.564378 0.37492 0.0652038
961 1 0.439983 0.372781 0.184132
946 1 0.505757 0.435728 0.0635934
966 1 0.497356 0.43647 0.190243
948 1 0.622613 0.433855 0.0706779
935 1 0.562616 0.251412 0.0610652
932 1 0.382262 0.314126 0.0566111
950 1 0.441102 0.312965 0.124835
936 1 0.501246 0.321725 0.0602353
954 1 0.559277 0.311046 0.124562
942 1 0.37611 0.437289 0.0595099