ITEM: TIMESTEP
100000
ITEM: NUMBER OF ATOMS
2048
ITEM: BOX BOUNDS pp pp pp
0.0000000000000000e+00 1.2302095357258066e+01
0.0000000000000000e+00 1.2302095357258066e+01
0.0000000000000000e+00 1.2302095357258066e+01
ITEM: ATOMS id type xs ys zs
1011 1 0.25862 0.231726 0.0685045
1539 1 0.0280141 0.04779 0.035777
492 1 0.158545 0.213284 0.174677
1473 1 0.226522 0.165156 0.176502
605 1 0.0427882 0.181107 0.0658988
1142 1 0.29046 0.131219 0.143343
1929 1 0.031358 0.235147 0.1612
1019 1 0.107207 0.213938 0.113006
747 1 0.313622 0.214965 0.187821
892 1 0.0736406 0.0107109 0.0946079
610 1 0.28486 0.167495 0.243107
402 1 0.217323 0.08127 0.0931494
543 1 0.280068 0.0920793 0.2168
218 1 0.14322 0.0961714 0.022576
792 1 0.239136 0.15429 0.0853846
463 1 0.147896 0.133773 0.167391
258 1 0.333454 0.241308 0.0872762
2023 1 0.129287 0.144834 0.086848
1383 1 0.085004 0.0119518 0.175618
1318 1 0.19897 0.0857599 0.223364
1858 1 0.297033 0.0646181 0.0563631
683 1 0.165562 0.158381 0.240975
415 1 0.107627 0.241847 0.0359638
1001 1 0.235631 0.222621 0.229418
113 1 0.0425004 0.0685514 0.137486
29 1 0.263683 0.0440084 0.156013
1943 1 0.0727336 0.103223 0.0672427
1674 1 0.162219 0.0269748 0.0774716
1496 1 0.116322 0.167908 0.00120107
368 1 0.120353 0.0760252 0.12591
1564 1 0.115072 0.0943123 0.234198
1475 1 0.197603 0.176885 0.0162262
1670 1 0.0798416 0.166209 0.232193
908 1 0.0781875 0.243849 0.233658
1451 1 0.319014 0.145089 0.073205
1965 1 0.187816 0.0413714 0.163247
568 1 0.18253 0.21159 0.0919861
551 1 0.0661922 0.146522 0.139552
1194 1 0.0338497 0.0589531 0.226812
1974 1 0.236888 0.0140218 0.0471207
540 1 0.265044 0.142372 0.00672792
781 1 0.00931513 0.150359 0.196409
1545 1 0.041785 0.13627 0.00285752
1560 1 0.122783 0.206323 0.310428
373 1 0.260448 0.0847751 0.485716
413 1 0.0449867 0.206806 0.296334
1617 1 0.140467 0.0454212 0.445182
482 1 0.124543 0.170622 0.446897
89 1 0.208894 0.183037 0.304739
611 1 0.0110234 0.131117 0.273095
725 1 0.291663 0.230816 0.293426
560 1 0.162114 0.108039 0.306974
1878 1 0.172388 0.196724 0.382783
630 1 0.0818047 0.194934 0.377363
1728 1 0.0949548 0.0278619 0.267832
1203 1 0.208458 0.126916 0.374684
1514 1 0.169259 0.0493191 0.360685
624 1 0.021749 0.00145737 0.403854
945 1 0.0464974 0.181305 0.464127
1724 1 0.124486 0.109813 0.489728
557 1 0.329737 0.0980703 0.284473
573 1 0.0233461 0.14833 0.351907
1999 1 0.285597 0.0688394 0.345489
198 1 0.32502 0.0515506 0.441433
233 1 0.0184701 0.224294 0.409829
1266 1 0.0607799 0.10676 0.425066
502 1 0.177657 0.033539 0.277382
1072 1 0.284969 0.154824 0.322819
1975 1 0.194095 0.105587 0.452867
1185 1 0.0811604 0.102255 0.308852
893 1 0.221024 0.048006 0.415833
199 1 0.0843926 0.0431542 0.365278
1765 1 -0.000787381 0.0627785 0.359372
1950 1 0.237444 0.101687 0.290542
1971 1 0.280617 0.128975 0.40271
1811 1 0.124438 0.11507 0.377611
594 1 0.272215 0.215943 0.368144
1115 1 0.0569202 0.0354027 0.48306
1896 1 0.227877 0.186496 0.445006
1644 1 0.156452 0.23837 0.492248
895 1 0.307526 0.160479 0.476035
2024 1 0.237149 0.00452636 0.478072
77 1 0.263571 0.0319598 0.26257
1536 1 0.291752 0.23154 0.577933
1414 1 0.112603 0.243191 0.581747
620 1 0.198175 0.191507 0.582729
709 1 0.259558 0.0334155 0.546427
1648 1 0.240117 0.178511 0.735855
297 1 0.305594 0.0858309 0.584693
25 1 0.299773 0.243775 0.684604
264 1 0.272391 0.0394397 0.683937
1426 1 0.214184 0.103156 0.546942
1813 1 0.0312761 0.20814 0.593036
845 1 0.0277995 0.14234 0.688119
443 1 0.240139 0.119892 0.617421
1486 1 0.0606919 0.231914 0.52192
1909 1 0.172556 0.0370171 0.598093
1389 1 0.117736 0.216353 0.733462
842 1 0.108289 0.138778 0.68752
1920 1 0.10948 0.170191 0.554111
1243 1 0.153686 0.0333258 0.523827
203 1 0.0626654 0.139667 0.613034
1211 1 0.0693627 0.208634 0.666294
1400 1 0.0684332 0.0678006 0.699477
1871 1 0.109941 0.0688321 0.632702
74 1 0.0956313 0.0917573 0.560784
1346 1 0.151217 0.0673402 0.720846
592 1 0.194892 0.148881 0.676822
544 1 0.279983 0.153603 0.55545
1718 1 0.14325 0.199629 0.641855
1485 1 0.329413 0.176676 0.719743
65 1 0.243356 0.196699 0.642203
1947 1 0.159763 0.128707 0.602846
1302 1 0.0337291 0.112651 0.513279
1260 1 0.202575 0.0635196 0.660496
211 1 0.191289 0.229622 0.69467
731 1 0.0266741 0.070119 0.607763
1068 1 0.232893 0.095952 0.73644
2038 1 0.285354 0.119969 0.685854
1487 1 0.177844 0.163996 0.508544
1354 1 0.241719 0.0053653 0.617117
351 1 0.241395 0.220263 0.520855
1281 1 0.322378 0.157044 0.622397
282 1 0.100549 0.0111326 0.743895
1636 1 0.130445 0.00602788 0.662721
795 1 0.218665 0.0529251 0.924104
378 1 0.255651 0.102862 0.871125
1337 1 0.168937 0.101848 0.886322
2037 1 0.0766548 0.180694 0.919197
1773 1 0.0224844 0.17724 0.859013
1399 1 0.132531 0.0443867 0.846112
1182 1 0.278859 0.198414 0.840776
5 1 0.0278223 0.098473 0.906879
930 1 0.0935742 0.0339146 0.999905
684 1 0.215416 0.148992 0.818603
645 1 0.0213775 0.0333147 0.752384
197 1 0.146592 0.178353 0.887041
259 1 0.235129 0.230981 0.966436
1246 1 0.0519037 0.198046 0.788586
513 1 0.177646 0.087685 0.796535
196 1 0.0402681 0.222017 0.996348
462 1 0.256917 0.0567273 0.805681
1017 1 0.0900828 0.118718 0.852508
572 1 0.214337 0.0790508 0.996868
257 1 0.17247 0.135605 0.953805
1222 1 0.0699999 0.239395 0.852302
1766 1 0.226517 0.167882 0.90566
1252 1 0.205907 0.227599 0.860606
1699 1 0.288597 0.0377949 0.978456
644 1 0.0609114 0.0230395 0.892088
469 1 0.29529 0.12629 0.786408
1983 1 0.103338 0.105528 0.941239
896 1 0.0452813 0.0623842 0.826235
1576 1 0.298323 0.103375 0.935975
1910 1 0.150459 0.22044 0.951211
201 1 0.187725 0.226807 0.772881
770 1 0.143906 0.0324396 0.924537
1709 1 0.0135374 0.113375 0.767431
1531 1 0.125675 0.182031 0.810484
283 1 0.096512 0.117644 0.76765
1056 1 0.302759 0.191684 0.94394
696 1 0.290994 0.241004 0.769765
689 1 0.299332 0.0351581 0.89346
125 1 0.200712 0.0166553 0.76599
766 1 0.166857 0.149038 0.749288
1241 1 0.31353 0.0526533 0.753032
58 1 0.211392 0.00823052 0.842582
230 1 0.308523 0.248584 0.998741
1077 1 0.0663402 0.353137 0.0765748
857 1 0.257771 0.395233 0.237627
1444 1 0.121814 0.439721 0.210971
31 1 0.298345 0.375134 0.0740984
834 1 0.206148 0.385377 0.065005
1270 1 0.24325 0.461543 0.102535
1859 1 0.121264 0.415848 0.0648416
1279 1 0.0111851 0.322036 0.161093
1940 1 0.123003 0.350426 0.0233548
187 1 0.289939 0.474725 0.217333
2013 1 0.0471552 0.399329 0.011519
1603 1 0.096798 0.318823 0.21776
1591 1 0.0856003 0.299612 0.137149
1954 1 0.045589 0.263693 0.0786527
715 1 0.191138 0.25643 0.0279085
915 1 0.211267 0.448567 0.0176294
1646 1 0.30876 0.434053 0.151444
101 1 0.221269 0.319907 0.119475
1879 1 0.0534542 0.473508 0.0442119
613 1 0.164312 0.439124 0.129422
918 1 0.257067 0.30904 0.0379948
1065 1 0.157437 0.292589 0.173401
1672 1 0.23425 0.323338 0.203537
1686 1 0.157081 0.291155 0.0873593
1844 1 0.241459 0.250857 0.155058
1005 1 0.295371 0.461541 0.0362436
1931 1 0.139076 0.360614 0.119995
425 1 0.308472 0.358934 0.177439
520 1 0.0630365 0.383402 0.236787
1200 1 0.212686 0.454427 0.188527
1535 1 0.151662 0.486817 0.0424502
432 1 0.167606 0.37584 0.189898
748 1 0.238947 0.390967 0.149709
168 1 0.0683823 0.392433 0.160233
371 1 0.0390119 0.455211 0.197075
1367 1 0.0047143 0.413654 0.0840254
1168 1 0.060232 0.454666 0.115556
1127 1 0.29776 0.303856 0.121296
681 1 0.309297 0.296337 0.226997
1558 1 0.1591 0.253525 0.242712
656 1 0.079846 0.336936 0.373617
116 1 0.324973 0.335085 0.414265
1833 1 0.201188 0.268971 0.429214
512 1 0.176958 0.337726 0.268805
1873 1 0.132232 0.271075 0.392743
1292 1 0.176471 0.350816 0.415164
1921 1 0.0169157 0.448087 0.272969
1045 1 0.165008 0.406736 0.342236
229 1 0.107559 0.330839 0.451832
670 1 0.0514195 0.268052 0.351876
1413 1 0.101944 0.294272 0.293536
904 1 0.0308999 0.331426 0.298769
331 1 0.306712 0.406514 0.439411
1703 1 0.243655 0.294772 0.288609
121 1 0.108077 0.458873 0.361276
1995 1 0.244897 0.388447 0.32291
1249 1 0.324003 0.403581 0.34696
2029 1 0.0354205 0.383105 0.446394
1391 1 0.096361 0.485383 0.280558
541 1 0.310194 0.316914 0.318838
1928 1 0.22477 0.483508 0.261755
1612 1 0.282113 0.262216 0.430534
1132 1 0.0335181 0.399276 0.34169
1526 1 0.121477 0.403694 0.416531
410 1 0.185625 0.260121 0.330936
760 1 0.244807 0.315656 0.373932
1018 1 0.280722 0.461599 0.379462
298 1 0.183519 0.41901 0.254404
1186 1 0.257281 0.339003 0.460902
979 1 0.181472 0.31469 0.493268
1404 1 0.100619 0.406628 0.298034
279 1 0.151946 0.33074 0.340662
922 1 0.239959 0.394387 0.401196
442 1 0.286958 0.455022 0.298763
1242 1 0.190388 0.414873 0.462761
1273 1 0.246989 0.465652 0.446343
909 1 0.000693289 0.271597 0.253575
1913 1 0.0957855 0.462713 0.461177
877 1 0.18533 0.461226 0.398623
841 1 0.0261262 0.470219 0.413002
1681 1 0.180525 0.484674 0.326406
874 1 0.0101331 0.314115 0.424499
1479 1 0.0377411 0.300439 0.496313
545 1 0.127489 0.391145 0.502068
869 1 0.328425 0.488517 0.457277
1097 1 0.176547 0.48948 0.469546
454 1 0.0796045 0.255893 0.446146
473 1 0.114308 0.358373 0.592776
2003 1 0.250145 0.393607 0.515147
39 1 0.143585 0.376182 0.670065
1610 1 0.235644 0.277165 0.640145
114 1 0.317651 0.36531 0.572978
701 1 0.271099 0.293752 0.521867
1749 1 0.210297 0.45711 0.530464
1525 1 0.0595952 0.285785 0.684294
1 1 0.176813 0.496294 0.610105
1330 1 0.0403835 0.363476 0.640064
2041 1 0.278599 0.439829 0.683137
517 1 0.0817184 0.437024 0.609595
844 1 0.052648 0.497642 0.671473
1953 1 0.168062 0.310207 0.709568
980 1 0.0526865 0.292091 0.595573
1336 1 0.0803297 0.424751 0.702681
958 1 0.203401 0.273187 0.571213
643 1 0.105935 0.30311 0.534453
690 1 0.129182 0.474694 0.6764
634 1 0.0530614 0.392773 0.531858
1554 1 0.223898 0.354412 0.651957
1403 1 0.196381 0.364865 0.568116
754 1 0.0302474 0.348021 0.722846
650 1 0.0492115 0.480567 0.5479
287 1 0.139255 0.292868 0.637694
1436 1 0.00739917 0.441565 0.629415
1788 1 0.313533 0.296385 0.624888
648 1 0.192193 0.439115 0.657422
1960 1 0.261129 0.426308 0.604417
1831 1 0.303488 0.341459 0.691872
155 1 0.00700378 0.454565 0.722203
59 1 0.223834 0.469944 0.728291
730 1 0.161389 0.416295 0.746072
497 1 0.149587 0.432597 0.566736
566 1 0.308435 0.447528 0.532037
1964 1 0.240433 0.388124 0.73149
1223 1 0.103398 0.345047 0.741878
524 1 0.236973 0.297014 0.74071
753 1 0.12218 0.497044 0.529813
202 1 0.146916 0.342266 0.910284
1120 1 0.264679 0.382005 0.995762
1125 1 0.179842 0.394326 0.968605
1635 1 0.0281107 0.448509 0.950514
1457 1 0.0772053 0.278868 0.76841
475 1 0.102752 0.443824 0.97365
1737 1 0.0543186 0.309549 0.988178
434 1 0.196079 0.368066 0.852701
2046 1 0.158612 0.473066 0.817768
1454 1 0.302282 0.31875 0.957808
1888 1 0.319673 0.276684 0.839209
414 1 0.302419 0.47207 0.864191
420 1 0.12507 0.383312 0.814202
847 1 0.0886069 0.323949 0.862591
135 1 0.210899 0.29512 0.896733
996 1 0.215658 0.31623 0.972388
1143 1 0.0214089 0.49141 0.86647
109 1 0.281509 0.351925 0.840586
807 1 0.0712775 0.371131 0.926818
504 1 0.277588 0.253395 0.901404
1895 1 0.252807 0.364292 0.914762
2025 1 0.305294 0.319925 0.768665
1628 1 0.092657 0.493369 0.900418
179 1 0.121172 0.420324 0.884979
1099 1 0.0749222 0.446378 0.818045
1411 1 0.145937 0.29364 0.811033
210 1 0.207313 0.438786 0.882726
1274 1 0.140845 0.262789 0.88064
129 1 0.186694 0.344677 0.775628
1215 1 0.0139575 0.412169 0.885163
882 1 0.132919 0.29475 0.971374
1919 1 0.232806 0.289702 0.820803
973 1 0.255866 0.423767 0.814681
1797 1 0.170092 0.486012 0.954941
1518 1 0.06255 0.263689 0.926322
160 1 0.0527579 0.360322 0.799815
876 1 0.327533 0.427766 0.925154
556 1 0.256615 0.462888 0.940147
1855 1 0.0180126 0.491287 0.789512
1826 1 0.00195771 0.284452 0.785663
2033 1 0.297811 0.486039 0.754687
1968 1 0.117407 0.483669 0.752405
993 1 0.322729 0.40574 0.752003
1112 1 0.0887503 0.516255 0.203442
1247 1 0.122595 0.517816 0.1201
949 1 0.165367 0.603294 0.111278
30 1 0.272791 0.520257 0.154541
143 1 0.0529952 0.698059 0.0773825
1504 1 0.229879 0.623291 0.0742701
103 1 0.23758 0.709502 0.0768743
311 1 0.0407983 0.576272 0.0085063
21 1 0.162441 0.65626 0.0521341
661 1 0.184732 0.519648 0.164374
1428 1 0.296547 0.651209 0.142449
858 1 0.214631 0.673633 0.166172
962 1 0.0778176 0.586193 0.140578
649 1 0.00699072 0.622281 0.135107
926 1 0.213802 0.710067 0.245786
195 1 0.184757 0.741459 0.131461
1078 1 0.120397 0.723434 0.0419062
1076 1 0.279304 0.72694 0.185261
1846 1 0.23543 0.552918 0.221167
60 1 0.134111 0.671462 0.207094
955 1 0.0218948 0.533216 0.170409
1682 1 0.202103 0.532677 0.0893047
452 1 0.0780335 0.626983 0.0678582
302 1 0.120546 0.672299 0.116179
968 1 0.305872 0.646124 0.063175
1998 1 0.15613 0.539622 0.24707
761 1 0.186106 0.622844 0.244809
1842 1 0.310475 0.718446 0.0338939
954 1 0.0469277 0.540417 0.0777439
394 1 0.230768 0.594929 0.150948
1499 1 0.135336 0.588741 0.187779
361 1 0.321317 0.719043 0.109559
1014 1 0.0656627 0.657732 0.172568
1867 1 0.00390522 0.610352 0.210973
240 1 0.12216 0.561619 0.060018
345 1 0.325998 0.748154 0.244598
1658 1 0.276927 0.547409 0.0713091
1210 1 0.0771623 0.610367 0.239828
1874 1 0.272681 0.62482 0.212283
1532 1 0.177264 0.551329 -0.000100171
627 1 0.26943 0.59462 0.00156093
1840 1 0.235351 0.666622 0.383446
528 1 0.287509 0.603358 0.446138
2048 1 0.21037 0.555404 0.301801
1396 1 0.179508 0.732759 0.41539
1927 1 0.243992 0.701565 0.458181
1687 1 0.255639 0.592798 0.365621
1031 1 0.0571094 0.513063 0.341835
1925 1 0.0411215 0.633005 0.412444
729 1 0.220057 0.740755 0.339531
301 1 0.0355262 0.70977 0.405147
1044 1 0.130547 0.557064 0.320545
1360 1 0.0323446 0.642622 0.295564
1900 1 0.13238 0.52247 0.406461
1123 1 0.100884 0.676449 0.38493
756 1 0.26458 0.532885 0.414027
675 1 0.317727 0.540797 0.250503
38 1 0.056136 0.594262 0.350678
1963 1 0.301638 0.617284 0.299696
1708 1 0.017316 0.730871 0.480255
791 1 0.142365 0.729835 0.321754
952 1 0.289624 0.683407 0.260454
1575 1 0.167985 0.620324 0.351075
1315 1 0.168926 0.658003 0.431237
1029 1 0.0947928 0.721602 0.45219
600 1 0.113 0.656352 0.301135
204 1 0.00315679 0.518034 0.492781
144 1 0.227577 0.650957 0.311162
1784 1 0.175925 0.690405 0.498975
1300 1 0.286252 0.528925 0.329517
292 1 0.211029 0.621973 0.483431
830 1 0.286201 0.721461 0.383131
510 1 0.152905 0.570428 0.472831
1349 1 0.0601136 0.739159 0.336407
1924 1 0.0551233 0.537705 0.434676
184 1 0.120382 0.59875 0.407009
636 1 0.193691 0.569398 0.405403
1275 1 0.259456 0.524758 0.496724
55 1 0.0968952 0.643303 0.474842
674 1 0.313954 0.642517 0.372516
1324 1 0.321618 0.703397 0.459817
1204 1 0.033927 0.537443 0.256597
499 1 0.0763068 0.716265 0.254678
124 1 0.0717561 0.561311 0.725052
1938 1 0.12447 0.648855 0.619377
1000 1 0.327907 0.696806 0.580508
1809 1 0.201525 0.623638 0.562576
736 1 0.223687 0.638606 0.683394
1139 1 0.111957 0.675066 0.550094
1008 1 0.156617 0.611551 0.714018
424 1 0.0287594 0.645756 0.519426
943 1 0.273475 0.58521 0.560937
1432 1 0.28158 0.706122 0.684177
953 1 0.328671 0.630721 0.693562
686 1 0.0139197 0.538401 0.597206
193 1 0.154967 0.693242 0.681704
628 1 0.309242 0.500901 0.64414
1608 1 0.113299 0.567644 0.653179
28 1 0.275678 0.583103 0.644443
1301 1 0.189881 0.536617 0.535354
42 1 0.282813 0.65345 0.622859
390 1 0.0410374 0.709367 0.564552
1262 1 0.297905 0.553836 0.708795
340 1 0.0631911 0.596026 0.595736
299 1 0.0904597 0.72697 0.724784
96 1 0.189065 0.580259 0.639542
339 1 7.90544e-05 0.646512 0.607387
1310 1 0.208203 0.675005 0.618369
607 1 0.0922377 0.721906 0.637544
751 1 0.0906277 0.654543 0.695792
1561 1 0.0745885 0.572721 0.512909
1806 1 0.155581 0.734926 0.592263
1631 1 0.133222 0.592577 0.561371
239 1 0.240314 0.698427 0.544609
612 1 0.0968209 0.511262 0.60466
861 1 0.237697 0.586167 0.742375
1642 1 0.0258373 0.600746 0.666248
137 1 0.170691 0.531811 0.715868
170 1 0.293575 0.648635 0.511437
12 1 0.229293 0.513365 0.665895
1239 1 0.026118 0.702179 0.679347
710 1 0.218075 0.729289 0.71764
216 1 0.265935 0.507145 0.575203
214 1 0.157601 0.665582 0.834794
798 1 0.148171 0.687459 0.972412
873 1 0.0993055 0.571299 0.918169
426 1 0.0106595 0.7439 0.947856
1047 1 0.262134 0.656691 0.912253
1716 1 0.212686 0.527705 0.785061
234 1 0.198374 0.648343 0.769361
1666 1 0.0160491 0.673927 0.884231
1342 1 0.30198 0.713823 0.812532
325 1 0.270562 0.729673 0.883601
1257 1 0.197618 0.62938 0.973842
130 1 0.116882 0.610793 0.98672
34 1 0.163828 0.617358 0.893847
1161 1 0.0264619 0.573927 0.79185
849 1 0.21327 0.549404 0.928322
1316 1 0.0321902 0.531007 0.9402
717 1 0.102036 0.523887 0.992602
1379 1 0.261741 0.59091 0.868642
76 1 0.0164478 0.719075 0.755579
561 1 0.080598 0.526235 0.825131
1707 1 0.236523 0.672445 0.834702
1136 1 0.135481 0.557371 0.778555
1556 1 0.142098 0.746078 0.85514
653 1 0.295479 0.540561 0.808882
85 1 0.0871061 0.627859 0.772474
1368 1 0.19301 0.591961 0.824155
1606 1 0.295046 0.536586 0.911227
2016 1 0.0963726 0.619212 0.849514
26 1 0.328367 0.643591 0.970527
1489 1 0.21969 0.743885 0.954521
123 1 0.278601 0.652807 0.76312
1590 1 0.0923691 0.674821 0.905833
261 1 0.0433822 0.629176 0.944734
693 1 0.236074 0.509932 0.85396
335 1 0.25106 0.680384 1.00035
1416 1 0.310538 0.63913 0.836464
275 1 0.154556 0.529584 0.869575
1783 1 0.148788 0.72525 0.779676
1027 1 0.0148805 0.646675 0.809475
70 1 0.184845 0.690046 0.903292
1619 1 0.0798763 0.691362 0.827436
1589 1 0.0307175 0.581313 0.873409
1580 1 0.305148 0.736316 0.956795
1234 1 0.247987 0.515476 0.997592
1058 1 0.115705 0.746912 0.928231
1595 1 0.064311 0.678906 0.99526
212 1 0.0766764 0.862467 0.0957862
738 1 0.3311 0.827873 0.12446
1051 1 0.0142604 0.842051 0.153111
767 1 0.303096 0.976002 0.0680772
235 1 0.284401 0.937831 0.147791
401 1 0.0182469 0.915908 0.210858
46 1 0.213888 0.977142 0.120936
1822 1 0.115439 0.96776 0.0471801
947 1 0.186993 0.928823 0.186014
380 1 0.0595425 0.758111 0.00965624
521 1 0.230939 0.789067 0.191321
1664 1 0.288419 0.843898 0.0636728
1187 1 0.179364 0.849804 0.039012
2011 1 0.188998 0.819672 0.134807
163 1 0.228914 0.887935 0.0933267
768 1 0.276698 0.908435 0.0182853
422 1 0.112949 0.894421 0.0265033
932 1 0.193369 0.942599 0.0508076
278 1 0.246679 0.985005 0.203815
901 1 0.106659 0.809984 0.0430594
851 1 0.0321995 0.853985 0.0242067
1805 1 0.186213 0.766751 0.0573325
894 1 0.102012 0.814596 0.170701
1743 1 0.132675 0.970521 0.137106
1860 1 0.036508 0.778832 0.0881047
90 1 0.147373 0.8945 0.112714
395 1 0.254894 0.774249 0.0162049
23 1 0.267608 0.856813 0.152732
1046 1 0.24527 0.905003 0.235816
1692 1 0.296604 0.823585 0.219142
1067 1 0.161734 0.843237 0.21561
1915 1 0.0517794 0.84833 0.222389
778 1 0.256182 0.783281 0.113406
839 1 0.0498519 0.950696 0.142555
1962 1 0.148577 0.991562 0.216383
1685 1 0.00718362 0.90393 0.0945196
939 1 0.0998971 0.893364 0.172493
1003 1 0.147538 0.755757 0.200235
167 1 0.0368792 0.960132 0.0290477
1438 1 0.330236 0.981018 0.203454
1799 1 0.111146 0.760049 0.110675
1118 1 0.0420021 0.75931 0.169514
836 1 0.0808385 0.949919 0.247914
1832 1 0.299936 0.974969 0.305818
1171 1 0.186851 0.888043 0.480971
3 1 0.315634 0.920462 0.431581
1510 1 0.234344 0.996623 0.342143
2043 1 0.179932 0.778276 0.270931
1440 1 0.0689704 0.835249 0.344073
606 1 0.0212223 0.963415 0.482225
765 1 0.263343 0.927275 0.366919
1759 1 0.283833 0.863773 0.315883
10 1 0.0648718 0.804927 0.466433
1698 1 0.195937 0.831993 0.42906
1135 1 0.139463 0.898526 0.263746
1639 1 0.22484 0.819088 0.357719
1650 1 0.131922 0.966488 0.310999
82 1 0.316843 0.8426 0.40024
45 1 0.035276 0.780809 0.258723
899 1 0.0400583 0.864497 0.423934
1370 1 0.19993 0.959221 0.265622
1482 1 0.0951528 0.976907 0.442953
1377 1 0.02842 0.788757 0.398081
1021 1 0.0466399 0.987401 0.321841
476 1 0.269811 0.793544 0.287582
724 1 0.184311 0.898776 0.380453
999 1 0.260259 0.865402 0.452335
1715 1 0.117479 0.855999 0.422115
1024 1 0.109324 0.812261 0.262632
921 1 0.201297 0.85471 0.285448
1147 1 0.163057 0.975857 0.399027
56 1 0.0946348 0.905854 0.483848
820 1 0.04667 0.895814 0.294247
106 1 0.225266 0.941279 0.435093
1538 1 0.162307 0.962286 0.482428
1774 1 0.0619424 0.923644 0.363783
1450 1 0.113633 0.767387 0.391785
35 1 0.145414 0.783161 0.469237
142 1 0.271821 0.789604 0.424604
1159 1 0.145548 0.828079 0.354911
1358 1 0.277406 0.993648 0.409309
1225 1 0.319825 0.78851 0.348028
1605 1 0.33243 0.978865 0.472333
1098 1 0.138151 0.836276 0.525223
1902 1 0.029409 0.850345 0.612862
1893 1 0.0368899 0.993416 0.685744
1427 1 0.00912305 0.928914 0.612161
2006 1 0.220849 0.764344 0.508746
1977 1 0.24734 0.859898 0.527748
1174 1 0.202329 0.798492 0.579435
1604 1 0.102406 0.884952 0.580038
16 1 0.302649 0.805014 0.501227
2004 1 0.238776 0.897477 0.695235
1362 1 0.0427883 0.836609 0.535543
63 1 0.288741 0.962524 0.66849
1437 1 0.271996 0.822274 0.620168
117 1 0.129203 0.794773 0.667029
1793 1 0.282089 0.764596 0.570804
1700 1 0.214062 0.970218 0.541523
1547 1 0.184152 0.89925 0.557985
1755 1 0.0355544 0.91546 0.543517
974 1 0.21424 0.819175 0.685812
1584 1 0.165601 0.788165 0.7368
855 1 0.165332 0.859542 0.642839
322 1 0.232224 0.918804 0.615179
1208 1 0.27858 0.982508 0.744933
758 1 0.108934 0.809705 0.593348
369 1 0.164601 0.952036 0.615663
1616 1 0.0509745 0.782345 0.658137
1035 1 0.0922301 0.875679 0.695192
1341 1 0.311212 0.8919 0.638607
618 1 0.0150011 0.780729 0.584278
1199 1 0.211205 0.983097 0.685344
987 1 0.290217 0.958599 0.576432
591 1 0.0902721 0.938394 0.64311
1343 1 0.154138 0.930183 0.707541
1680 1 0.31299 0.784237 0.675776
1189 1 0.0150816 0.843403 0.688367
905 1 0.279313 0.926168 0.5059
2045 1 0.186027 0.86793 0.744879
878 1 0.00268536 0.925779 0.711448
295 1 0.0949851 0.972608 0.531846
1982 1 0.322321 0.879545 0.553658
2047 1 0.0523564 0.99569 0.602837
1637 1 0.211434 0.751028 0.641584
1094 1 0.104182 0.753304 0.527569
898 1 0.0845349 0.902877 0.827986
1063 1 0.0830193 0.930197 0.749766
1851 1 0.217994 0.75411 0.823946
276 1 0.0956031 0.840252 0.766848
984 1 0.209338 0.975535 0.914182
977 1 0.229139 0.808549 0.774451
732 1 0.17046 0.902968 0.895394
182 1 0.261581 0.892639 0.933674
1467 1 0.0531052 0.834323 0.840137
359 1 0.121434 0.939094 0.960631
626 1 0.270696 0.800384 0.91727
654 1 0.237933 0.848263 0.858028
1233 1 0.216673 0.829195 0.968671
1981 1 0.00705468 0.803001 0.764545
865 1 0.287967 0.878332 0.764455
327 1 0.0024991 0.885666 0.952413
93 1 0.0134052 0.883903 0.778833
1638 1 0.156006 0.912722 0.81281
445 1 0.0512884 0.819935 0.954548
2034 1 0.0728137 0.763346 0.794759
1384 1 0.0175725 0.92825 0.863054
1175 1 0.288898 0.983401 0.829432
241 1 0.193885 0.789951 0.897372
508 1 0.113499 0.824863 0.889001
354 1 0.211305 0.941002 0.75826
2032 1 0.26131 0.963352 0.973041
843 1 0.124414 0.849926 0.961795
552 1 0.168132 0.824497 0.820269
1906 1 0.0777099 0.891647 0.911803
526 1 0.302614 0.83183 0.990923
408 1 0.232478 0.923734 0.850715
1695 1 0.120025 0.972247 0.885471
441 1 0.306428 0.819346 0.818861
867 1 0.095657 0.982877 0.811891
1439 1 0.0454073 0.959099 0.94072
1453 1 0.316896 0.877972 0.877303
131 1 0.297524 0.95733 0.908667
217 1 0.201316 0.912035 0.975392
1100 1 0.155232 0.780937 0.983328
1863 1 0.00113879 0.756644 0.826455
336 1 0.0005294 0.969013 0.79528
1596 1 0.0645313 0.754779 0.870239
1775 1 -0.00199072 0.802759 0.894146
522 1 0.184541 0.997862 0.99132
1166 1 0.297832 0.764198 0.75246
421 1 0.640589 0.0483127 0.0556771
57 1 0.491514 0.163664 0.146551
396 1 0.443075 0.103731 0.212077
1497 1 0.613249 0.0774372 0.210937
810 1 0.423506 0.0272642 0.179991
1347 1 0.647569 0.221673 0.135157
1690 1 0.419378 0.0410161 0.0988152
1484 1 0.480425 0.228705 0.0160636
1632 1 0.632812 0.0561704 0.132388
392 1 0.655153 0.141357 0.194904
1406 1 0.478193 0.100564 0.0722366
498 1 0.56105 0.0831098 0.138019
265 1 0.534982 0.00656565 0.168895
617 1 0.422672 0.192226 0.178745
1502 1 0.49576 0.157 0.223788
507 1 0.422034 0.203794 0.0630457
1961 1 0.61405 0.198786 0.0699095
735 1 0.557222 0.223835 0.0066592
357 1 0.435706 0.067947 0.0103445
1629 1 0.359138 0.182496 0.131796
1512 1 0.568903 0.162888 0.117265
1985 1 0.570637 0.10087 0.0568536
1049 1 0.458191 0.233781 0.127449
985 1 0.370099 0.0540918 0.226014
1110 1 0.499983 0.228109 0.19243
1876 1 0.411176 0.124998 0.128758
1244 1 0.518058 0.162961 0.0536128
698 1 0.573611 0.153151 0.202497
1970 1 0.483732 0.0667249 0.142907
1002 1 0.346745 0.0886787 0.158951
1543 1 0.555624 0.242517 0.245224
1340 1 0.394584 0.126541 0.0498188
1679 1 0.532266 0.0805335 0.212524
1723 1 0.575604 0.22268 0.167906
444 1 0.376063 0.0194452 0.0355997
547 1 0.532861 0.0269882 0.0875058
1380 1 0.370275 0.151134 0.218683
1477 1 0.553654 0.0223305 0.00677691
527 1 0.6571 0.133625 0.115048
1023 1 0.663116 0.144692 0.0330573
870 1 0.348768 0.0181928 0.122727
712 1 0.548093 0.233255 0.0931184
1513 1 0.351082 0.182812 0.00978266
244 1 0.466324 0.148291 0.000567229
699 1 0.481772 0.220437 0.425391
274 1 0.580413 0.0242918 0.484827
587 1 0.493132 0.00589939 0.48586
84 1 0.549145 0.0525583 0.334793
2031 1 0.479352 0.00175461 0.317552
1652 1 0.513546 0.120424 0.294312
1108 1 0.551708 0.184482 0.377622
790 1 0.525935 0.155751 0.448662
389 1 0.483687 0.0195289 0.404577
1789 1 0.588755 0.0501532 0.408652
1856 1 0.41237 0.0128404 0.489486
1394 1 0.643316 0.0710185 0.347137
191 1 0.415548 0.10669 0.290652
1172 1 0.650249 0.0668552 0.474121
1195 1 0.618514 0.188326 0.326517
1885 1 0.586656 0.11612 0.478426
1184 1 0.459375 0.162904 0.337272
1780 1 0.586899 0.113263 0.286689
1640 1 0.410789 0.061476 0.421939
326 1 0.654726 0.151962 0.471142
92 1 0.565259 0.249186 0.435278
697 1 0.404245 0.184172 0.379041
112 1 0.369665 0.168737 0.311375
1423 1 0.461789 0.082193 0.352981
53 1 0.618089 0.125393 0.406745
938 1 0.45499 0.126583 0.421492
1202 1 0.530507 0.10439 0.386167
102 1 0.520554 0.199702 0.299957
584 1 0.374728 0.137284 0.437172
889 1 0.429158 0.180702 0.259756
1864 1 0.335602 0.199467 0.413556
576 1 0.518717 0.076771 0.463122
1573 1 0.640132 0.229735 0.484367
312 1 0.371161 0.0305523 0.296968
1663 1 0.439149 0.0361886 0.258221
673 1 0.360175 0.0867437 0.36036
1627 1 0.628703 0.204121 0.412252
133 1 0.418103 0.233272 0.315755
2021 1 0.40721 0.207881 0.458356
460 1 0.340987 0.249388 0.347244
1622 1 0.338533 0.0105943 0.367803
1583 1 0.524174 0.0162572 0.256748
256 1 0.604238 0.0241766 0.277238
1278 1 0.414645 0.00541203 0.361419
1294 1 0.662805 0.0725622 0.2736
453 1 0.423088 0.128906 0.499141
621 1 0.361066 0.229205 0.255455
192 1 0.628374 0.19868 0.251965
266 1 0.524244 0.142595 0.631091
1537 1 0.545363 0.0521075 0.569191
890 1 0.613014 0.150858 0.548323
1153 1 0.359782 0.250833 0.745804
1649 1 0.559447 0.185378 0.685351
1345 1 0.335795 0.0234512 0.621105
1582 1 0.345614 0.00986493 0.543588
341 1 0.599 0.246765 0.66518
967 1 0.395076 0.0662824 0.56815
976 1 0.616387 0.173809 0.636224
929 1 0.640743 0.223734 0.575403
1152 1 0.606798 0.11524 0.690868
773 1 0.442726 0.207 0.676915
537 1 0.555505 0.201709 0.58418
1501 1 0.501223 0.00275648 0.702956
367 1 0.62196 0.0576316 0.547487
1429 1 0.645536 0.0472705 0.630306
1973 1 0.462572 0.135201 0.576745
1113 1 0.529142 0.119715 0.533635
1626 1 0.356703 0.162374 0.532822
1877 1 0.460813 0.0715133 0.701147
691 1 0.589935 0.102761 0.605246
846 1 0.596504 0.0353001 0.702831
1694 1 0.39995 0.172725 0.601502
1038 1 0.475545 0.0722518 0.620967
505 1 0.478619 0.228911 0.573804
582 1 0.562921 0.207182 0.50097
366 1 0.377622 0.10129 0.638554
635 1 0.444424 0.135078 0.655641
812 1 0.377098 0.103676 0.719444
1421 1 0.540708 0.0719381 0.66524
47 1 0.415245 0.0202417 0.639594
1659 1 0.501009 0.134332 0.709595
1684 1 0.472159 0.0650532 0.532321
419 1 0.5182 0.24254 0.641951
744 1 0.411856 0.234586 0.537152
438 1 0.352739 0.0894584 0.506298
309 1 0.3516 0.0113761 0.70011
22 1 0.355308 0.228412 0.629191
159 1 0.615183 0.180389 0.743268
1821 1 0.515817 0.00101746 0.624394
941 1 0.337068 0.240383 0.511089
40 1 0.409087 0.0325031 0.749418
255 1 0.414633 0.173895 0.746803
1312 1 0.482242 0.192148 0.502827
1581 1 0.493275 0.0476251 0.87902
672 1 0.620794 0.0756395 0.77005
951 1 0.383255 0.151068 0.945096
1313 1 0.459786 0.109631 0.79306
1261 1 0.589377 0.143474 0.810033
1265 1 0.420081 0.0829255 0.931122
1794 1 0.59726 0.246387 0.813748
1601 1 0.605558 0.00339356 0.887983
493 1 0.663076 0.134439 0.956576
1305 1 0.502208 0.196434 0.943719
153 1 0.582059 0.149889 0.978001
1731 1 0.482791 0.0180667 0.781081
409 1 0.552719 0.0513297 0.927252
459 1 0.520001 0.0946943 0.990383
608 1 0.42038 0.211335 0.900893
1914 1 0.518953 0.197061 0.757666
433 1 0.517365 0.155692 0.827678
1541 1 0.347462 0.0407945 0.830384
1523 1 0.609128 0.076669 0.987146
1151 1 0.348876 0.211439 0.86979
1951 1 0.424763 0.163105 0.840388
989 1 0.424638 0.052191 0.837686
1322 1 0.591356 0.0891357 0.86293
719 1 0.471455 0.131073 0.900773
358 1 0.47929 0.223589 0.834573
226 1 0.38 0.112943 0.795602
837 1 0.489567 0.0201464 0.966687
1657 1 0.64684 0.067208 0.924728
250 1 0.556209 0.0234639 0.820493
998 1 0.346006 0.186239 0.791859
1381 1 0.587164 0.218672 0.933956
1717 1 0.550439 0.141862 0.905875
97 1 0.541603 0.0828143 0.764059
739 1 0.546203 0.216943 0.866518
2007 1 0.623785 0.187698 0.863593
775 1 0.405098 0.234178 0.807172
1395 1 0.37342 0.0120155 0.903803
1250 1 0.367615 0.111486 0.872412
803 1 0.660877 0.0432071 0.848035
990 1 0.350275 0.090697 0.992613
1156 1 0.638463 0.21161 0.990537
597 1 0.52447 0.373408 0.11759
742 1 0.411769 0.360013 0.0208178
1387 1 0.592874 0.360466 0.156786
1082 1 0.492561 0.375166 0.0358246
1141 1 0.392911 0.411902 0.191649
1880 1 0.610426 0.285581 0.123539
819 1 0.520764 0.470895 0.185268
1449 1 0.337046 0.317854 0.0299195
51 1 0.556448 0.418024 0.0541887
1183 1 0.577517 0.448141 0.131997
105 1 0.427814 0.27037 0.193375
1327 1 0.611829 0.356461 0.0399161
746 1 0.402337 0.26445 0.00766252
1987 1 0.505547 0.454417 0.100109
1741 1 0.644759 0.282529 0.0384551
457 1 0.471911 0.304742 0.00340807
49 1 0.407371 0.284504 0.0867539
562 1 0.376153 0.335953 0.206389
1511 1 0.521796 0.390571 0.240344
960 1 0.431163 0.468554 0.135813
1991 1 0.372574 0.421466 0.0808
1401 1 0.489379 0.315175 0.213842
1892 1 0.616905 0.276935 0.201808
815 1 0.602197 0.354163 0.243823
140 1 0.361498 0.273786 0.153596
317 1 0.439535 0.336464 0.143322
813 1 0.537724 0.295818 0.158005
1505 1 0.476347 0.406626 0.169339
1397 1 0.365386 0.347121 0.118299