ITEM: TIMESTEP
100000
ITEM: NUMBER OF ATOMS
400
ITEM: BOX BOUNDS pp pp pp
0.0000000000000000e+00 2.3904572186687872e+01
0.0000000000000000e+00 2.3904572186687872e+01
-5.9761430466719678e-01 5.9761430466719678e-01
ITEM: ATOMS id type xs ys zs
281 1 0.0211458 0.107055 0.5
375 1 0.0594104 0.0877151 0.5
219 1 0.118575 0.136525 0.5
248 1 0.0860086 0.0281093 0.5
373 1 0.00211267 0.154462 0.5
35 1 0.0398456 0.0467266 0.5
333 1 0.101326 0.0722357 0.5
132 1 -0.000579229 0.072946 0.5
245 1 0.0434114 0.153226 0.5
67 1 0.0212125 0.194931 0.5
112 1 0.0013368 0.233178 0.5
188 1 0.0848312 0.32131 0.5
255 1 0.088226 0.218008 0.5
72 1 0.0452473 0.232331 0.5
263 1 0.0825862 0.279398 0.5
343 1 0.0431044 0.309494 0.5
400 1 0.110477 0.17964 0.5
294 1 0.0118357 0.282096 0.5
330 1 0.0234934 0.390868 0.5
151 1 0.113506 0.360321 0.5
135 1 0.0985334 0.405639 0.5
298 1 0.0160008 0.490602 0.5
73 1 0.102425 0.468771 0.5
226 1 0.0472546 0.437661 0.5
379 1 0.0613999 0.356297 0.5
278 1 -0.000128316 0.446936 0.5
16 1 0.0667237 0.489872 0.5
382 1 0.11183 0.568648 0.5
191 1 0.0631664 0.622439 0.5
283 1 0.0491816 0.563557 0.5
218 1 0.00542867 0.591438 0.5
385 1 0.111127 0.615768 0.5
26 1 0.0232613 0.637715 0.5
146 1 0.0970188 0.524405 0.5
327 1 0.0154313 0.54071 0.5
215 1 0.120831 0.658182 0.5
293 1 0.0778411 0.665392 0.5
140 1 0.102835 0.711666 0.5
198 1 0.0389215 0.732438 0.5
246 1 0.107753 0.818818 0.5
196 1 0.063795 0.825418 0.5
223 1 0.0503455 0.694003 0.5
288 1 0.0454685 0.784255 0.5
186 1 0.0107967 0.818298 0.5
7 1 0.0036409 0.766934 0.5
88 1 0.106436 0.771151 0.5
167 1 0.0440645 0.945294 0.5
2 1 0.0238319 0.862588 0.5
197 1 0.066821 0.979914 0.5
251 1 0.0876545 0.934006 0.5
23 1 0.0928013 0.889019 0.5
349 1 0.00358109 0.898771 0.5
104 1 0.0294019 0.996183 0.5
339 1 0.21326 -4.6604e-05 0.5
331 1 0.176239 0.035526 0.5
394 1 0.232432 0.147162 0.5
292 1 0.159337 0.12907 0.5
66 1 0.241847 0.0444115 0.5
87 1 0.197115 0.164135 0.5
161 1 0.189668 0.0850756 0.5
253 1 0.149364 0.0700803 0.5
58 1 0.126248 0.0365795 0.5
306 1 0.197362 0.262788 0.5
129 1 0.23088 0.208655 0.5
302 1 0.24225 0.248958 0.5
9 1 0.129602 0.314914 0.5
193 1 0.156611 0.194324 0.5
261 1 0.192299 0.221493 0.5
176 1 0.168095 0.302186 0.5
47 1 0.151586 0.235824 0.5
165 1 0.246436 0.30779 0.5
391 1 0.24926 0.429117 0.5
154 1 0.151095 0.350086 0.5
286 1 0.196674 0.435268 0.5
290 1 0.181017 0.480893 0.5
83 1 0.230514 0.489414 0.5
335 1 0.137184 0.490867 0.5
152 1 0.142946 0.436313 0.5
252 1 0.244753 0.346707 0.5
22 1 0.200919 0.349941 0.5
65 1 0.14594 0.395706 0.5
320 1 0.218636 0.52854 0.5
170 1 0.175653 0.580887 0.5
108 1 0.217457 0.608656 0.5
12 1 0.176022 0.624736 0.5
175 1 0.163151 0.522935 0.5
70 1 0.23075 0.570951 0.5
13 1 0.22148 0.656334 0.5
229 1 0.204658 0.761842 0.5
383 1 0.184193 0.682588 0.5
239 1 0.233567 0.730424 0.5
119 1 0.143221 0.695472 0.5
4 1 0.150721 0.781762 0.5
364 1 0.156837 0.733523 0.5
312 1 0.192233 0.805347 0.5
232 1 0.236743 0.811229 0.5
145 1 0.222733 0.861502 0.5
44 1 0.18203 0.925848 0.5
362 1 0.174964 0.98583 0.5
99 1 0.126857 0.861942 0.5
249 1 0.160088 0.834369 0.5
396 1 0.146359 0.899219 0.5
318 1 0.126878 0.956846 0.5
368 1 0.13513 0.998774 0.5
80 1 0.292702 0.0450042 0.5
324 1 0.30773 0.140966 0.5
106 1 0.349697 0.111774 0.5
150 1 0.358589 0.0228823 0.5
265 1 0.31698 0.0773321 0.5
124 1 0.274535 0.11908 0.5
20 1 0.271664 0.0784234 0.5
345 1 0.260591 0.00683101 0.5
390 1 0.364857 0.0698315 0.5
126 1 0.311075 0.00212984 0.5
10 1 0.353264 0.210282 0.5
244 1 0.321736 0.309407 0.5
267 1 0.274619 0.278268 0.5
115 1 0.370959 0.247045 0.5
397 1 0.303591 0.195365 0.5
185 1 0.32526 0.244075 0.5
264 1 0.281591 0.330399 0.5
116 1 0.283035 0.237651 0.5
86 1 0.266495 0.174623 0.5
238 1 0.26464 0.467901 0.5
350 1 0.328741 0.438681 0.5
282 1 0.286822 0.398412 0.5
338 1 0.358494 0.412436 0.5
392 1 0.333905 0.364804 0.5
328 1 0.305869 0.476633 0.5
62 1 0.344716 0.554646 0.5
34 1 0.267984 0.609482 0.5
27 1 0.329417 0.619097 0.5
166 1 0.36567 0.512667 0.5
163 1 0.314394 0.521316 0.5
329 1 0.264617 0.530208 0.5
337 1 0.301839 0.578999 0.5
295 1 0.310286 0.758219 0.5
321 1 0.268275 0.770145 0.5
273 1 0.316087 0.716537 0.5
94 1 0.273148 0.712709 0.5
6 1 0.301146 0.804226 0.5
78 1 0.334421 0.678574 0.5
42 1 0.344651 0.789717 0.5
127 1 0.353858 0.73231 0.5
157 1 0.278927 0.666256 0.5
353 1 0.261602 0.847423 0.5
210 1 0.311029 0.925578 0.5
21 1 0.313358 0.88419 0.5
216 1 0.290632 0.968343 0.5
178 1 0.344471 0.974572 0.5
142 1 0.271253 0.887698 0.5
95 1 0.349526 0.91467 0.5
173 1 0.345319 0.845145 0.5
136 1 0.270823 0.932162 0.5
365 1 0.444905 0.0604389 0.5
202 1 0.398337 0.0102969 0.5
143 1 0.390444 0.112025 0.5
291 1 0.436658 0.147364 0.5
344 1 0.494842 0.0817569 0.5
315 1 0.449885 0.0213667 0.5
341 1 0.435442 0.104336 0.5
60 1 0.495899 0.00163104 0.5
378 1 0.483591 0.123237 0.5
74 1 0.487736 0.235522 0.5
357 1 0.484738 0.288578 0.5
342 1 0.437843 0.247802 0.5
41 1 0.422162 0.288757 0.5
93 1 0.399872 0.215025 0.5
149 1 0.382513 0.285859 0.5
3 1 0.45562 0.317928 0.5
313 1 0.448203 0.198644 0.5
110 1 0.395177 0.172643 0.5
384 1 0.49922 0.172592 0.5
111 1 0.457319 0.364938 0.5
266 1 0.38439 0.384543 0.5
346 1 0.423297 0.462804 0.5
285 1 0.407733 0.42418 0.5
212 1 0.450456 0.410758 0.5
181 1 0.496622 0.458881 0.5
125 1 0.458416 0.482099 0.5
179 1 0.422583 0.34169 0.5
300 1 0.381349 0.458358 0.5
133 1 0.376366 0.347201 0.5
211 1 0.431927 0.624135 0.5
156 1 0.499164 0.662881 0.5
131 1 0.397909 0.600298 0.5
310 1 0.378469 0.650116 0.5
84 1 0.392129 0.558346 0.5
242 1 0.443854 0.563932 0.5
128 1 0.470682 0.595218 0.5
233 1 0.464705 0.527171 0.5
359 1 0.421905 0.503915 0.5
322 1 0.45442 0.661566 0.5
5 1 0.384854 0.689401 0.5
204 1 0.445761 0.76297 0.5
54 1 0.400305 0.752089 0.5
194 1 0.491134 0.76416 0.5
257 1 0.424506 0.717601 0.5
224 1 0.466764 0.804463 0.5
296 1 0.476361 0.69884 0.5
200 1 0.400134 0.795728 0.5
301 1 0.421166 0.955244 0.5
352 1 0.4719 0.929971 0.5
316 1 0.415225 0.867357 0.5
137 1 0.463973 0.972721 0.5
250 1 0.470226 0.879337 0.5
393 1 0.599858 0.14876 0.5
227 1 0.554813 0.101816 0.5
130 1 0.576408 0.0231976 0.5
46 1 0.523282 0.133447 0.5
168 1 0.602332 0.0724484 0.5
36 1 0.536398 0.0106132 0.5
8 1 0.528417 0.0606822 0.5
380 1 0.525544 0.219653 0.5
56 1 0.513767 0.320339 0.5
199 1 0.594436 0.295483 0.5
326 1 0.568924 0.216542 0.5
360 1 0.565847 0.259359 0.5
172 1 0.605736 0.199609 0.5
24 1 0.527065 0.276952 0.5
177 1 0.562703 0.320303 0.5
30 1 0.552123 0.173334 0.5
262 1 0.620628 0.248736 0.5
399 1 0.557897 0.464074 0.5
32 1 0.552112 0.424809 0.5
14 1 0.554384 0.367737 0.5
214 1 0.614131 0.431058 0.5
182 1 0.600694 0.473204 0.5
280 1 0.500901 0.366619 0.5
103 1 0.599056 0.383131 0.5
120 1 0.507773 0.411028 0.5
1 1 0.61506 0.347108 0.5
141 1 0.559854 0.503577 0.5
311 1 0.590303 0.651637 0.5
279 1 0.506195 0.566974 0.5
118 1 0.554947 0.542021 0.5
240 1 0.560422 0.584979 0.5
235 1 0.608748 0.603045 0.5
260 1 0.536791 0.639882 0.5
187 1 0.595632 0.565017 0.5
319 1 0.519057 0.500095 0.5
48 1 0.505056 0.825194 0.5
355 1 0.546073 0.680146 0.5
289 1 0.61828 0.744181 0.5
347 1 0.589266 0.773005 0.5
317 1 0.576166 0.715165 0.5
138 1 0.618807 0.698738 0.5
374 1 0.549976 0.795428 0.5
314 1 0.52997 0.724901 0.5
105 1 0.54789 0.919942 0.5
225 1 0.511548 0.896293 0.5
305 1 0.576601 0.859867 0.5
388 1 0.541965 0.83854 0.5
309 1 0.621779 0.853102 0.5
207 1 0.557823 0.971409 0.5
354 1 0.623043 0.909105 0.5
17 1 0.588802 0.944226 0.5
15 1 0.51075 0.961072 0.5
276 1 0.604746 0.985761 0.5
77 1 0.68633 0.0545717 0.5
209 1 0.641725 0.0586218 0.5
308 1 0.69719 0.142815 0.5
18 1 0.653215 0.137012 0.5
268 1 0.695461 0.0971947 0.5
381 1 0.667634 0.0143494 0.5
63 1 0.7324 0.0713255 0.5
155 1 0.744699 0.108682 0.5
271 1 0.627633 0.104321 0.5
75 1 0.719331 0.236267 0.5
259 1 0.746956 0.304377 0.5
254 1 0.697498 0.294757 0.5
395 1 0.659701 0.229156 0.5
38 1 0.654344 0.178657 0.5
52 1 0.656771 0.332452 0.5
39 1 0.697553 0.199635 0.5
25 1 0.643712 0.288656 0.5
29 1 0.739709 0.169044 0.5
81 1 0.698076 0.337918 0.5
183 1 0.651674 0.377894 0.5
275 1 0.749948 0.483001 0.5
121 1 0.65644 0.427406 0.5
230 1 0.643415 0.469569 0.5
169 1 0.690853 0.450366 0.5
90 1 0.708533 0.489699 0.5
11 1 0.746092 0.421811 0.5
307 1 0.675184 0.592908 0.5
43 1 0.65579 0.5165 0.5
144 1 0.713799 0.548806 0.5
201 1 0.706572 0.635983 0.5
50 1 0.745822 0.607373 0.5
69 1 0.640481 0.663908 0.5
270 1 0.675881 0.807692 0.5
82 1 0.702589 0.770243 0.5
71 1 0.65917 0.767235 0.5
220 1 0.66036 0.697737 0.5
195 1 0.698839 0.730883 0.5
367 1 0.742963 0.819218 0.5
192 1 0.63166 0.813581 0.5
59 1 0.679657 0.908707 0.5
234 1 0.680343 0.956457 0.5
398 1 0.738311 0.869234 0.5
33 1 0.659821 0.870655 0.5
334 1 0.718596 0.999637 0.5
303 1 0.702397 0.838844 0.5
148 1 0.747489 0.920133 0.5
206 1 0.806325 0.029608 0.5
189 1 0.854194 0.103643 0.5
37 1 0.775321 0.152271 0.5
117 1 0.856361 0.0471217 0.5
256 1 0.825327 0.135154 0.5
139 1 0.805785 0.0776285 0.5
85 1 0.765781 0.029899 0.5
160 1 0.872861 0.00964364 0.5
332 1 0.848317 0.173223 0.5
31 1 0.791396 0.199999 0.5
92 1 0.760971 0.25027 0.5
107 1 0.833187 0.231493 0.5
89 1 0.790436 0.328167 0.5
180 1 0.851442 0.265883 0.5
208 1 0.84897 0.306282 0.5
122 1 0.870609 0.217643 0.5
45 1 0.82737 0.420118 0.5
299 1 0.874209 0.421499 0.5
363 1 0.831484 0.350765 0.5
134 1 0.832103 0.488941 0.5
57 1 0.770877 0.370639 0.5
386 1 0.788695 0.469506 0.5
164 1 0.866149 0.539105 0.5
102 1 0.774901 0.574195 0.5
366 1 0.813788 0.552689 0.5
98 1 0.832704 0.642912 0.5
97 1 0.775839 0.64275 0.5
51 1 0.813112 0.59619 0.5
123 1 0.753653 0.532123 0.5
147 1 0.813604 0.736299 0.5
222 1 0.762205 0.750018 0.5
340 1 0.854662 0.684134 0.5
159 1 0.868731 0.79095 0.5
387 1 0.78959 0.790501 0.5
158 1 0.83657 0.818035 0.5
91 1 0.751972 0.702488 0.5
325 1 0.852665 0.935848 0.5
213 1 0.776532 0.988869 0.5
243 1 0.82285 0.983592 0.5
171 1 0.8323 0.858943 0.5
153 1 0.792314 0.883815 0.5
323 1 0.787259 0.929696 0.5
28 1 0.82808 0.90126 0.5
53 1 0.873108 0.879731 0.5
297 1 0.779731 0.848077 0.5
96 1 0.996122 0.0248655 0.5
64 1 0.954783 0.0840743 0.5
304 1 0.946759 0.00383665 0.5
241 1 0.876994 0.139762 0.5
348 1 0.978418 0.117611 0.5
19 1 0.900009 0.0941846 0.5
269 1 0.953115 0.0436656 0.5
377 1 0.911827 0.0303857 0.5
190 1 0.929073 0.130025 0.5
79 1 0.918629 0.231606 0.5
61 1 0.967862 0.259956 0.5
369 1 0.937321 0.333883 0.5
113 1 0.981617 0.313956 0.5
68 1 0.895079 0.184444 0.5
376 1 0.946592 0.181769 0.5
370 1 0.933943 0.28779 0.5
258 1 0.899332 0.321612 0.5
228 1 0.895864 0.268128 0.5
389 1 0.972103 0.410937 0.5
221 1 0.949601 0.463983 0.5
40 1 0.92042 0.419908 0.5
49 1 0.981741 0.361624 0.5
55 1 0.883877 0.377357 0.5
272 1 0.941273 0.376894 0.5
372 1 0.893365 0.476753 0.5
101 1 0.924641 0.610326 0.5
203 1 0.972689 0.631545 0.5
371 1 0.909173 0.561844 0.5
358 1 0.957009 0.584875 0.5
356 1 0.96991 0.505576 0.5
217 1 0.945957 0.541032 0.5
114 1 0.882029 0.630446 0.5
184 1 0.875866 0.585742 0.5
237 1 0.928542 0.752527 0.5
274 1 0.915494 0.794538 0.5
174 1 0.974402 0.794406 0.5
361 1 0.883527 0.747993 0.5
109 1 0.997753 0.669848 0.5
287 1 0.926839 0.669021 0.5
247 1 0.950354 0.704553 0.5
351 1 0.944736 0.831426 0.5
205 1 0.995755 0.718682 0.5
162 1 0.909389 0.972833 0.5
76 1 0.933965 0.927545 0.5
336 1 0.999036 0.945778 0.5
231 1 0.92614 0.88201 0.5
100 1 0.961161 0.964957 0.5
277 1 0.893634 0.923987 0.5
236 1 0.904779 0.834968 0.5
284 1 0.975902 0.854279 0.5
