ITEM: TIMESTEP
100000
ITEM: NUMBER OF ATOMS
400
ITEM: BOX BOUNDS pp pp pp
0.0000000000000000e+00 2.1081851067789195e+01
0.0000000000000000e+00 2.1081851067789195e+01
-5.2704627669472992e-01 5.2704627669472992e-01
ITEM: ATOMS id type xs ys zs
359 1 0.0937748 0.0726105 0.5
87 1 0.0308374 0.0197435 0.5
52 1 0.0520999 0.110213 0.5
370 1 0.0318969 0.164638 0.5
104 1 0.0417309 0.0659838 0.5
348 1 0.110968 0.117925 0.5
160 1 -0.00061645 0.120838 0.5
339 1 0.0820509 0.0231498 0.5
342 1 0.0917389 0.164574 0.5
77 1 0.0530044 0.264301 0.5
56 1 0.0944631 0.232309 0.5
231 1 0.0389546 0.308477 0.5
170 1 0.0878159 0.303563 0.5
228 1 0.0535893 0.209371 0.5
42 1 0.00412698 0.260967 0.5
304 1 -0.00257606 0.201386 0.5
245 1 0.0487976 0.385458 0.5
116 1 0.104332 0.496444 0.5
134 1 0.0575453 0.458413 0.5
221 1 0.0140095 0.473113 0.5
240 1 0.0936109 0.399933 0.5
180 1 0.0239297 0.426938 0.5
48 1 0.0868306 0.352194 0.5
168 1 0.118806 0.445184 0.5
282 1 0.00641921 0.349784 0.5
3 1 0.0873574 0.609721 0.5
398 1 0.022733 0.538993 0.5
205 1 0.0521925 0.57584 0.5
41 1 0.0776225 0.532176 0.5
98 1 0.0633134 0.66584 0.5
208 1 0.0313078 0.631214 0.5
142 1 0.114651 0.565024 0.5
106 1 0.119897 0.644999 0.5
5 1 0.00729426 0.588289 0.5
331 1 0.0192764 0.674073 0.5
198 1 0.124887 0.818743 0.5
356 1 0.0779016 0.736239 0.5
260 1 0.10007 0.695879 0.5
166 1 0.0784305 0.823365 0.5
141 1 0.089951 0.779275 0.5
92 1 0.0420964 0.792254 0.5
102 1 0.0380003 0.715193 0.5
17 1 0.0937178 0.966366 0.5
57 1 0.0251295 0.892148 0.5
218 1 0.114826 0.862748 0.5
69 1 0.0725972 0.924109 0.5
394 1 0.00879148 0.946883 0.5
273 1 0.0664683 0.870278 0.5
130 1 0.0473884 0.977309 0.5
301 1 0.0308256 0.838138 0.5
192 1 0.124412 0.929493 0.5
363 1 0.179642 0.0511869 0.5
261 1 0.148102 0.0925813 0.5
67 1 0.208748 0.141053 0.5
234 1 0.235814 0.0542023 0.5
154 1 0.143038 0.16068 0.5
385 1 0.249496 0.00752503 0.5
318 1 0.199273 0.0949431 0.5
194 1 0.134157 0.0464681 0.5
21 1 0.234344 0.256654 0.5
132 1 0.182704 0.179512 0.5
51 1 0.192605 0.283672 0.5
215 1 0.128743 0.272748 0.5
285 1 0.191967 0.231995 0.5
232 1 0.242696 0.305195 0.5
139 1 0.140796 0.227506 0.5
31 1 0.226297 0.189604 0.5
115 1 0.150225 0.318844 0.5
241 1 0.183008 0.381998 0.5
172 1 0.227946 0.3732 0.5
330 1 0.219405 0.418325 0.5
334 1 0.214911 0.465102 0.5
327 1 0.16413 0.431805 0.5
107 1 0.149917 0.480327 0.5
95 1 0.136859 0.36161 0.5
46 1 0.198289 0.337529 0.5
268 1 0.181753 0.566895 0.5
267 1 0.147363 0.604379 0.5
266 1 0.148747 0.527374 0.5
101 1 0.197289 0.633471 0.5
161 1 0.196725 0.515478 0.5
209 1 0.246431 0.635526 0.5
114 1 0.23422 0.571499 0.5
346 1 0.240924 0.506 0.5
262 1 0.153464 0.781357 0.5
265 1 0.199916 0.778974 0.5
286 1 0.204345 0.682631 0.5
20 1 0.14419 0.693055 0.5
181 1 0.173612 0.730987 0.5
288 1 0.242356 0.749605 0.5
270 1 0.223288 0.820068 0.5
30 1 0.175176 0.821249 0.5
125 1 0.248004 0.701021 0.5
179 1 0.124783 0.74092 0.5
324 1 0.157024 0.888563 0.5
274 1 0.197875 0.860213 0.5
61 1 0.230055 0.959143 0.5
70 1 0.169757 0.956469 0.5
389 1 0.205383 0.915046 0.5
377 1 0.201366 0.997186 0.5
397 1 0.247561 0.860885 0.5
121 1 0.144294 0.998708 0.5
100 1 0.293318 0.0163297 0.5
284 1 0.280419 0.0590743 0.5
49 1 0.348654 0.139148 0.5
90 1 0.307091 0.117756 0.5
259 1 0.337001 0.0325702 0.5
353 1 0.262366 0.151096 0.5
400 1 0.357387 0.0895226 0.5
258 1 0.255922 0.106846 0.5
50 1 0.314555 0.170052 0.5
54 1 0.314053 0.219908 0.5
22 1 0.28349 0.264311 0.5
295 1 0.328891 0.276679 0.5
351 1 0.363023 0.243203 0.5
60 1 0.270454 0.200562 0.5
111 1 0.354946 0.190175 0.5
276 1 0.336274 0.329177 0.5
244 1 0.351426 0.434248 0.5
227 1 0.306258 0.422418 0.5
343 1 0.321194 0.466758 0.5
216 1 0.261937 0.445034 0.5
338 1 0.308277 0.371622 0.5
238 1 0.266669 0.396677 0.5
55 1 0.355042 0.378862 0.5
233 1 0.271257 0.347732 0.5
366 1 0.375195 0.478008 0.5
178 1 0.288051 0.497916 0.5
174 1 0.34143 0.626253 0.5
165 1 0.367677 0.561911 0.5
358 1 0.319989 0.574825 0.5
252 1 0.276111 0.544846 0.5
127 1 0.282383 0.662345 0.5
300 1 0.34286 0.516899 0.5
237 1 0.289269 0.613565 0.5
292 1 0.301675 0.710693 0.5
91 1 0.273889 0.798442 0.5
250 1 0.325785 0.798963 0.5
158 1 0.297659 0.760533 0.5
206 1 0.369552 0.827927 0.5
40 1 0.345055 0.725193 0.5
86 1 0.364443 0.772739 0.5
145 1 0.348475 0.678731 0.5
35 1 0.325666 0.971292 0.5
307 1 0.262329 0.916825 0.5
135 1 0.296108 0.881765 0.5
376 1 0.346006 0.886489 0.5
278 1 0.296945 0.834253 0.5
290 1 0.31807 0.923212 0.5
6 1 0.360773 0.940977 0.5
10 1 0.484113 0.106253 0.5
399 1 0.443758 0.130578 0.5
200 1 0.437267 0.0760139 0.5
253 1 0.466991 0.01397 0.5
382 1 0.398443 0.110014 0.5
322 1 0.488685 0.0561026 0.5
298 1 0.418396 0.0149404 0.5
217 1 0.381273 0.045995 0.5
226 1 0.396398 0.158451 0.5
251 1 0.496872 0.151279 0.5
264 1 0.440802 0.279503 0.5
85 1 0.488648 0.30723 0.5
311 1 0.422373 0.237807 0.5
328 1 0.430167 0.324753 0.5
171 1 0.492026 0.206574 0.5
24 1 0.440728 0.196754 0.5
380 1 0.391256 0.288954 0.5
193 1 0.479966 0.25294 0.5
75 1 0.434457 0.378062 0.5
201 1 0.457077 0.418318 0.5
9 1 0.404184 0.416683 0.5
392 1 0.381314 0.340957 0.5
219 1 0.424278 0.473755 0.5
16 1 0.473934 0.466288 0.5
126 1 0.48967 0.364272 0.5
375 1 0.467959 0.51394 0.5
112 1 0.403118 0.601734 0.5
387 1 0.42099 0.559859 0.5
254 1 0.486847 0.586181 0.5
47 1 0.455383 0.631081 0.5
74 1 0.397597 0.652608 0.5
229 1 0.396151 0.520536 0.5
29 1 0.485384 0.672233 0.5
357 1 0.405486 0.748331 0.5
396 1 0.450642 0.777151 0.5
14 1 0.389717 0.704257 0.5
72 1 0.434853 0.677796 0.5
326 1 0.407137 0.798029 0.5
321 1 0.452537 0.721033 0.5
345 1 0.492464 0.754628 0.5
82 1 0.496056 0.803654 0.5
302 1 0.492477 0.875895 0.5
45 1 0.377335 0.98992 0.5
361 1 0.440931 0.882719 0.5
65 1 0.462475 0.83623 0.5
183 1 0.442667 0.968389 0.5
39 1 0.478197 0.925362 0.5
88 1 0.406602 0.935049 0.5
277 1 0.39399 0.892888 0.5
383 1 0.41694 0.844255 0.5
248 1 0.567935 0.00286468 0.5
315 1 0.527391 0.0830647 0.5
81 1 0.566377 0.0596648 0.5
73 1 0.581797 0.107314 0.5
235 1 0.52901 0.0318646 0.5
211 1 0.613804 0.0718879 0.5
109 1 0.539072 0.135843 0.5
79 1 0.59178 0.153779 0.5
287 1 0.622348 0.025668 0.5
37 1 0.535224 0.328684 0.5
305 1 0.529537 0.239631 0.5
312 1 0.608749 0.308974 0.5
373 1 0.61126 0.252558 0.5
124 1 0.572371 0.223117 0.5
157 1 0.564343 0.286871 0.5
151 1 0.548009 0.180019 0.5
103 1 0.539674 0.395255 0.5
354 1 0.571991 0.358958 0.5
372 1 0.548077 0.441638 0.5
352 1 0.619856 0.490717 0.5
34 1 0.513393 0.492552 0.5
269 1 0.584514 0.406052 0.5
256 1 0.503104 0.430258 0.5
391 1 0.593546 0.453906 0.5
146 1 0.559464 0.488424 0.5
212 1 0.616212 0.371295 0.5
239 1 0.532721 0.584747 0.5
223 1 0.597343 0.549442 0.5
38 1 0.549857 0.537548 0.5
374 1 0.571736 0.60422 0.5
66 1 0.541927 0.661926 0.5
164 1 0.508592 0.629323 0.5
119 1 0.595316 0.649375 0.5
341 1 0.502603 0.5438 0.5
222 1 0.616539 0.608706 0.5
163 1 0.57336 0.69629 0.5
122 1 0.585036 0.826665 0.5
257 1 0.552227 0.792137 0.5
316 1 0.536733 0.748093 0.5
246 1 0.5214 0.703742 0.5
97 1 0.616286 0.777559 0.5
176 1 0.588158 0.742726 0.5
89 1 0.58112 0.930066 0.5
129 1 0.524191 0.911821 0.5
289 1 0.622521 0.86952 0.5
207 1 0.617411 0.977184 0.5
36 1 0.544503 0.957994 0.5
293 1 0.529474 0.841279 0.5
335 1 0.561954 0.8822 0.5
71 1 0.507513 0.990445 0.5
105 1 0.724929 0.107611 0.5
15 1 0.694387 0.0174803 0.5
310 1 0.666098 0.0535529 0.5
33 1 0.64234 0.134538 0.5
306 1 0.678554 0.0980782 0.5
368 1 0.71376 0.0631793 0.5
255 1 0.718863 0.156685 0.5
299 1 0.749887 0.023238 0.5
184 1 0.739762 0.283269 0.5
96 1 0.69881 0.306605 0.5
386 1 0.652672 0.235755 0.5
388 1 0.6754 0.191256 0.5
28 1 0.717897 0.212561 0.5
280 1 0.69091 0.259702 0.5
384 1 0.646329 0.282347 0.5
159 1 0.627647 0.194448 0.5
340 1 0.673279 0.405271 0.5
12 1 0.719657 0.418301 0.5
323 1 0.714316 0.464031 0.5
59 1 0.660212 0.459594 0.5
296 1 0.698124 0.363473 0.5
243 1 0.652378 0.338089 0.5
58 1 0.744018 0.372287 0.5
117 1 0.629599 0.423654 0.5
123 1 0.712376 0.624411 0.5
350 1 0.685954 0.583851 0.5
63 1 0.698426 0.539703 0.5
110 1 0.666392 0.625909 0.5
213 1 0.731758 0.573969 0.5
44 1 0.642015 0.559252 0.5
156 1 0.740451 0.504296 0.5
128 1 0.741621 0.667496 0.5
224 1 0.664472 0.506664 0.5
263 1 0.66855 0.757693 0.5
93 1 0.634482 0.72717 0.5
173 1 0.673626 0.803929 0.5
182 1 0.708505 0.726018 0.5
272 1 0.712473 0.781903 0.5
210 1 0.711542 0.827319 0.5
393 1 0.687145 0.682173 0.5
4 1 0.638185 0.675907 0.5
68 1 0.738943 0.916165 0.5
202 1 0.724707 0.983173 0.5
27 1 0.663841 0.850977 0.5
143 1 0.689248 0.93455 0.5
362 1 0.714293 0.871939 0.5
148 1 0.665793 0.895012 0.5
118 1 0.666816 0.978026 0.5
136 1 0.640368 0.932831 0.5
360 1 0.849531 0.105559 0.5
281 1 0.807467 0.0553176 0.5
137 1 0.86385 0.0475741 0.5
247 1 0.757959 0.0762845 0.5
25 1 0.802664 0.0997717 0.5
155 1 0.789572 0.00707253 0.5
80 1 0.766857 0.131257 0.5
325 1 0.812808 0.147155 0.5
13 1 0.839316 0.00508919 0.5
133 1 0.86791 0.246896 0.5
147 1 0.791436 0.279284 0.5
220 1 0.807076 0.198158 0.5
355 1 0.761719 0.182117 0.5
347 1 0.82311 0.245743 0.5
309 1 0.832998 0.307079 0.5
191 1 0.851093 0.202718 0.5
214 1 0.764331 0.241317 0.5
150 1 0.760536 0.323814 0.5
199 1 0.860681 0.34727 0.5
197 1 0.826755 0.38476 0.5
138 1 0.833821 0.485721 0.5
23 1 0.805431 0.440367 0.5
140 1 0.859449 0.431725 0.5
294 1 0.787921 0.479794 0.5
242 1 0.758514 0.444704 0.5
149 1 0.78257 0.400615 0.5
76 1 0.796579 0.351209 0.5
187 1 0.828689 0.539579 0.5
279 1 0.851002 0.610613 0.5
395 1 0.77963 0.543146 0.5
379 1 0.815595 0.580586 0.5
188 1 0.770273 0.629899 0.5
381 1 0.81421 0.644222 0.5
186 1 0.865441 0.567815 0.5
189 1 0.873699 0.650694 0.5
26 1 0.796728 0.73891 0.5
11 1 0.77312 0.803302 0.5
336 1 0.839874 0.828464 0.5
365 1 0.835014 0.771222 0.5
153 1 0.795819 0.687724 0.5
329 1 0.842646 0.694371 0.5
7 1 0.751769 0.761047 0.5
64 1 0.751681 0.713284 0.5
297 1 0.800902 0.851695 0.5
196 1 0.845201 0.875807 0.5
120 1 0.815989 0.962708 0.5
32 1 0.755356 0.845425 0.5
19 1 0.862492 0.950157 0.5
364 1 0.818612 0.918472 0.5
349 1 0.766861 0.96319 0.5
62 1 0.779356 0.891547 0.5
83 1 0.875715 0.162537 0.5
308 1 0.976914 0.159772 0.5
275 1 0.912089 0.037309 0.5
78 1 0.917469 0.136106 0.5
249 1 0.962336 0.0418603 0.5
333 1 0.947404 0.101706 0.5
367 1 0.89871 0.0830565 0.5
344 1 0.992798 0.0754207 0.5
185 1 0.957187 0.250408 0.5
230 1 0.924348 0.305 0.5
1 1 0.976708 0.299033 0.5
369 1 0.912709 0.256729 0.5
313 1 0.942075 0.190653 0.5
108 1 0.90035 0.205865 0.5
303 1 0.87796 0.302154 0.5
203 1 0.957505 0.457175 0.5
190 1 0.938176 0.389611 0.5
390 1 0.916325 0.429938 0.5
319 1 0.976247 0.412285 0.5
291 1 0.907031 0.353538 0.5
314 1 0.893986 0.471828 0.5
94 1 0.957479 0.339232 0.5
283 1 0.880634 0.390578 0.5
225 1 0.901942 0.613308 0.5
320 1 0.98029 0.503682 0.5
378 1 0.970584 0.548232 0.5
204 1 0.948549 0.602387 0.5
53 1 0.975313 0.640178 0.5
84 1 0.92566 0.561321 0.5
371 1 0.877809 0.525348 0.5
18 1 0.932904 0.508519 0.5
177 1 0.947768 0.730965 0.5
152 1 0.883347 0.763194 0.5
162 1 0.935338 0.780216 0.5
317 1 0.992262 0.759151 0.5
175 1 0.893595 0.808139 0.5
337 1 0.988539 0.711959 0.5
167 1 0.926439 0.672531 0.5
271 1 0.900436 0.721713 0.5
236 1 0.986638 0.816675 0.5
43 1 0.94113 0.831896 0.5
195 1 0.955576 0.931099 0.5
8 1 0.927284 0.880284 0.5
131 1 0.977137 0.878383 0.5
332 1 0.884385 0.989439 0.5
99 1 0.911129 0.951438 0.5
144 1 0.93709 0.997681 0.5
169 1 0.888119 0.905066 0.5
113 1 0.98483 0.98925 0.5
2 1 0.89206 0.853272 0.5
