LAMMPS (15 Sep 2022)
OMP_NUM_THREADS environment is not set. Defaulting to 1 thread. (src/comm.cpp:98)
  using 1 OpenMP thread(s) per MPI task
Lattice spacing in x,y,z = 1.4142136 1.4142136 1.4142136
Created orthogonal box = (0 0 -0.70710678) to (28.284271 28.284271 0.70710678)
  8 by 6 by 1 MPI processor grid
Created 400 atoms
  using lattice units in orthogonal box = (0 0 -0.70710678) to (28.284271 28.284271 0.70710678)
  create_atoms CPU = 0.001 seconds
Generated 0 of 0 mixed pair_coeff terms from geometric mixing rule
Neighbor list info ...
  update: every = 1 steps, delay = 0 steps, check = yes
  max neighbors/atom: 2000, page size: 100000
  master list distance cutoff = 1.3
  ghost atom cutoff = 1.3
  binsize = 0.65, bins = 44 44 3
  1 neighbor lists, perpetual/occasional/extra = 1 0 0
  (1) pair lj/cut, perpetual
      attributes: half, newton on
      pair build: half/bin/atomonly/newton
      stencil: half/bin/2d
      bin: standard
Setting up Verlet run ...
  Unit style    : lj
  Current step  : 0
  Time step     : 0.01
Per MPI rank memory allocation (min/avg/max) = 3.047 | 3.047 | 3.047 Mbytes
   Step          Temp          E_pair         E_mol          TotEng         Press     
         0   3              0              0              2.9925         1.49625      
       500   2.9719074      0.17224791     0              3.1367256      3.2756253    
      1000   2.8202745      0.21884617     0              3.03207        3.4792872    
      1500   2.8646543      0.31211522     0              3.1696079      4.091093     
      2000   2.8099818      0.21666778     0              3.0196247      3.5129866    
      2500   3.0417134      0.21038355     0              3.2444927      3.4721365    
      3000   2.9507266      0.26041853     0              3.2037683      3.8082224    
      3500   3.1319696      0.1362105      0              3.2603502      3.0674226    
      4000   3.3200521      0.22014104     0              3.531893       3.6931626    
      4500   3.0543121      0.23703272     0              3.2837091      3.7222812    
      5000   2.8902415      0.26973303     0              3.152749       3.8370389    
      5500   2.9608977      0.19210413     0              3.1455996      3.2859833    
      6000   2.9690881      0.17513533     0              3.1368008      3.3237465    
      6500   2.9027836      0.16713607     0              3.0626627      3.2516923    
      7000   2.7949919      0.20759605     0              2.9956004      3.3693808    
      7500   2.7604458      0.25489192     0              3.0084366      3.7291118    
      8000   3.0268003      0.14523823     0              3.1644716      3.0922814    
      8500   2.8941235      0.15945571     0              3.0463439      3.1092709    
      9000   2.9114148      0.17243818     0              3.0765744      3.2928642    
      9500   2.7135582      0.19170056     0              2.8984749      3.385079     
     10000   3.0224067      0.17723626     0              3.192087       3.4092764    
     10500   2.9683108      0.29315706     0              3.2540471      4.0438233    
     11000   3.0651817      0.25709111     0              3.3146098      3.9033601    
     11500   3.236869       0.22836375     0              3.4571406      3.6369888    
     12000   3.022204       0.23783924     0              3.2524877      3.8171773    
     12500   2.9740752      0.22466874     0              3.1913088      3.6624545    
     13000   2.9932748      0.13393456     0              3.1197262      2.9121762    
     13500   2.8631625      0.23055954     0              3.0865641      3.647037     
     14000   2.7711363      0.22738298     0              2.9915915      3.6186059    
     14500   2.8483422      0.16035947     0              3.0015809      3.2439122    
     15000   2.8767079      0.20899977     0              3.0785159      3.3649022    
     15500   2.7963919      0.15340304     0              2.942804       3.1073724    
     16000   3.158483       0.23260022     0              3.383187       4.0154899    
     16500   3.0980858      0.23755067     0              3.3278912      3.8560419    
     17000   3.1461485      0.21663216     0              3.3549153      3.6145723    
     17500   2.9694852      0.32713697     0              3.2891985      4.4004852    
     18000   3.1119199      0.23769481     0              3.3418349      3.7712832    
     18500   3.0782731      0.2649235      0              3.3355009      3.8205841    
     19000   3.0623061      0.22047169     0              3.275122       3.6521087    
     19500   2.7257019      0.19210362     0              2.9109913      3.4249804    
     20000   2.8455404      0.19714549     0              3.035572       3.3167998    
     20500   2.8792054      0.19292713     0              3.0649345      3.4520217    
     21000   2.9295295      0.19670198     0              3.1189076      3.454649     
     21500   2.9504522      0.14882896     0              3.091905       3.0939655    
     22000   2.9243846      0.22480948     0              3.1418831      3.6495502    
     22500   2.9196928      0.33529454     0              3.2476881      4.2399682    
     23000   3.0394027      0.19924429     0              3.2310485      3.4826871    
     23500   3.1899794      0.16396184     0              3.3459663      3.4443306    
     24000   3.1777181      0.28630419     0              3.456078       4.3337667    
     24500   2.9887413      0.22932932     0              3.2105988      3.8398355    
     25000   2.8780648      0.24168422     0              3.1125538      3.6302174    
     25500   2.8540007      0.23161979     0              3.0784855      3.7218392    
     26000   2.9595454      0.25437303     0              3.2065196      3.9489739    
     26500   2.6867631      0.31005128     0              2.9900975      4.0050598    
     27000   2.868055       0.1466421      0              3.0075269      3.1107056    
     27500   2.8811449      0.19929725     0              3.0732393      3.500381     
     28000   2.8657952      0.23697117     0              3.0956019      3.5436114    
     28500   2.7810981      0.24866708     0              3.0228124      3.6791314    
     29000   2.75808        0.23376616     0              2.984951       3.5390111    
     29500   3.1918199      0.18662701     0              3.3704673      3.5195288    
     30000   3.0841132      0.1991089      0              3.2755118      3.4709514    
     30500   3.1665197      0.18707476     0              3.3456782      3.4310315    
     31000   3.0117235      0.24820145     0              3.2523957      3.6709374    
     31500   3.0667988      0.3621483      0              3.4212801      4.7674232    
     32000   3.3642703      0.27771161     0              3.6335713      4.2141916    
     32500   2.9208812      0.178873       0              3.092452       3.3608623    
     33000   2.9304348      0.20812333     0              3.131232       3.5792809    
     33500   2.9387131      0.1693468      0              3.1007131      3.158336     
     34000   2.8571269      0.14165489     0              2.991639       2.9657253    
     34500   2.9161799      0.26670546     0              3.1755949      3.8754517    
     35000   2.7595583      0.21079817     0              2.9634575      3.5106687    
     35500   2.9042114      0.20827305     0              3.1052239      3.3923636    
     36000   2.8803705      0.14446173     0              3.0176313      2.8870549    
     36500   2.9929542      0.15259221     0              3.138064       3.1072505    
     37000   3.0323071      0.16317727     0              3.1879036      3.0601815    
     37500   3.151613       0.2437285      0              3.3874625      3.9322402    
     38000   3.2044255      0.19741284     0              3.3938273      3.5479843    
     38500   3.1385647      0.21991642     0              3.3506347      3.8196814    
     39000   2.9912917      0.31449917     0              3.2983126      4.2077997    
     39500   3.2308685      0.2735599      0              3.4963512      4.1254496    
     40000   3.3730379      0.25323467     0              3.61784        4.0173025    
     40500   3.1402523      0.23770096     0              3.3701027      3.7362913    
     41000   3.0283628      0.22056488     0              3.2413568      3.4932115    
     41500   2.9827256      0.16173644     0              3.1370052      3.2283953    
     42000   2.651643       0.13954292     0              2.7845568      2.7957518    
     42500   2.7781426      0.18816229     0              2.9593595      3.3818701    
     43000   2.943992       0.21553237     0              3.1521644      3.6062175    
     43500   3.0401598      0.15193759     0              3.184497       3.1785159    
     44000   3.0234403      0.20748798     0              3.2233697      3.6845031    
     44500   3.2227822      0.15948162     0              3.3742068      3.274615     
     45000   2.9937952      0.26471387     0              3.2510245      3.9216713    
     45500   3.0168042      0.28566401     0              3.2949262      4.0328624    
     46000   3.2464048      0.24710939     0              3.4853981      3.7373225    
     46500   3.1020453      0.17400974     0              3.2682999      3.2571338    
     47000   3.1133196      0.21018399     0              3.3157203      3.3912382    
     47500   3.0451297      0.1957411      0              3.233258       3.5060481    
     48000   3.0838833      0.17942397     0              3.2555975      3.3895001    
     48500   2.7398831      0.16438922     0              2.8974226      2.993477     
     49000   2.7725402      0.15838011     0              2.923989       3.1167253    
     49500   2.9277634      0.12308397     0              3.0435279      2.9301037    
     50000   2.9673515      0.22319956     0              3.1831327      3.6281726    
Loop time of 0.92314 on 48 procs for 50000 steps with 400 atoms

Performance: 46796811.322 tau/day, 54162.976 timesteps/s, 21.665 Matom-step/s
99.4% CPU use with 48 MPI tasks x 1 OpenMP threads

MPI task timing breakdown:
Section |  min time  |  avg time  |  max time  |%varavg| %total
---------------------------------------------------------------
Pair    | 0.0076128  | 0.0083017  | 0.0093359  |   0.4 |  0.90
Neigh   | 0.017687   | 0.018331   | 0.020063   |   0.4 |  1.99
Comm    | 0.36847    | 0.43606    | 0.49573    |   6.3 | 47.24
Output  | 0.0020935  | 0.0023449  | 0.012342   |   3.0 |  0.25
Modify  | 0.206      | 0.26137    | 0.32647    |   7.4 | 28.31
Other   |            | 0.1967     |            |       | 21.31

Nlocal:        8.33333 ave          11 max           5 min
Histogram: 1 4 0 9 0 12 12 0 6 4
Nghost:        14.0833 ave          19 max          11 min
Histogram: 3 7 10 9 0 8 7 2 1 1
Neighs:        7.89583 ave          18 max           2 min
Histogram: 5 3 7 15 5 9 2 0 1 1

Total # of neighbors = 379
Ave neighs/atom = 0.9475
Neighbor list builds = 16907
Dangerous builds = 0
Generated 0 of 0 mixed pair_coeff terms from geometric mixing rule
Setting up Verlet run ...
  Unit style    : lj
  Current step  : 50000
  Time step     : 0.01
Per MPI rank memory allocation (min/avg/max) = 3.068 | 3.068 | 3.068 Mbytes
   Step          Temp          E_pair         E_mol          TotEng         Press     
     50000   2.9673515      0.22319956     0              3.1831327      3.6281726    
     50500   2.7988128      0.22595882     0              3.0177746      3.4303686    
     51000   2.9354575      0.16427428     0              3.0923931      3.1871398    
     51500   2.8972717      0.21758618     0              3.1076147      3.6486712    
     52000   3.063932       0.14665871     0              3.2029309      3.2592502    
     52500   2.9986412      0.20238397     0              3.1935286      3.2322688    
     53000   3.1610107      0.17463529     0              3.3277435      3.452267     
     53500   3.1004433      0.32608393     0              3.4187761      4.3280565    
     54000   2.9808827      0.20558936     0              3.1790199      3.6227076    
     54500   2.8811237      0.18419379     0              3.0581147      3.3214892    
     55000   2.7455557      0.21155451     0              2.9502463      3.3888874    
     55500   2.6002309      0.21562919     0              2.8093595      3.308361     
     56000   2.8452241      0.1364524      0              2.9745635      2.997243     
     56500   2.8102669      0.20148505     0              3.0047263      3.4375819    
     57000   2.6839274      0.16038713     0              2.8376047      3.1012182    
     57500   2.7559743      0.15693819     0              2.9060226      2.9843836    
     58000   2.6822555      0.20043806     0              2.8759879      3.2860502    
     58500   2.421269       0.18363678     0              2.5988526      3.0282727    
     59000   2.6742336      0.14748672     0              2.8150347      2.8849036    
     59500   2.7587566      0.23527027     0              2.98713        3.6636741    
     60000   2.9389488      0.1765415      0              3.1081429      3.3364269    
     60500   3.0366144      0.14496204     0              3.1739849      3.1577562    
     61000   2.7794012      0.15546815     0              2.9279208      2.9543182    
     61500   2.6255448      0.21275738     0              2.8317384      3.2796301    
     62000   2.5355056      0.18664385     0              2.7158107      3.0174642    
     62500   2.604157       0.18813359     0              2.7857802      3.2350381    
     63000   2.4627738      0.22076046     0              2.6773774      3.4721663    
     63500   2.4562957      0.14678159     0              2.5969366      2.8982036    
     64000   2.284379       0.14477996     0              2.4234481      2.7034913    
     64500   2.5507767      0.19722344     0              2.7416232      3.3137161    
     65000   2.5595284      0.21050265     0              2.7636322      3.2169845    
     65500   2.6295641      0.17471183     0              2.797702       3.2279585    
     66000   2.5388225      0.24448279     0              2.7769582      3.5382901    
     66500   2.6377289      0.23310189     0              2.8642365      3.419208     
     67000   2.5085355      0.19467647     0              2.6969407      3.2838167    
     67500   2.4645803      0.14560619     0              2.604025       2.7546359    
     68000   2.3152889      0.12582675     0              2.4353274      2.6418316    
     68500   2.2757563      0.21938119     0              2.4894481      3.1222361    
     69000   2.4127827      0.15093945     0              2.5576902      2.7293893    
     69500   2.508551       0.15008541     0              2.652365       2.8156843    
     70000   2.5412801      0.21900841     0              2.7539353      3.3623578    
     70500   2.5894073      0.19703695     0              2.7799707      3.2295513    
     71000   2.3687247      0.18575338     0              2.5485563      3.0815812    
     71500   2.302351       0.14141247     0              2.4380076      2.8091394    
     72000   2.2809753      0.10813385     0              2.3834067      2.4190951    
     72500   2.2504488      0.16764607     0              2.4124687      2.8838414    
     73000   2.2102932      0.12287151     0              2.327639       2.4717399    
     73500   2.3254468      0.12744487     0              2.447078       2.5688354    
     74000   2.3558872      0.163954       0              2.5139515      2.9115756    
     74500   2.4593976      0.22185545     0              2.6751045      3.5822256    
     75000   2.3910766      0.14477279     0              2.5298717      2.7919892    
     75500   2.2347018      0.13689792     0              2.3660129      2.6251262    
     76000   2.1213859      0.17400616     0              2.2900886      2.9190113    
     76500   2.1164185      0.16904739     0              2.2801749      2.8509562    
     77000   1.9963687      0.089569456    0              2.0809472      2.1071853    
     77500   2.1065582      0.13376895     0              2.2350607      2.4861408    
     78000   2.1900084      0.14927451     0              2.3338079      2.8264226    
     78500   2.1632443      0.20671714     0              2.3645533      3.1028435    
     79000   2.1700804      0.1933583      0              2.3580135      3.0231571    
     79500   2.2692724      0.13724167     0              2.4008408      2.6305194    
     80000   2.3858714      0.20739532     0              2.5873021      3.1833139    
     80500   2.1553291      0.14179766     0              2.2917385      2.5131936    
     81000   2.1105618      0.13975525     0              2.2450406      2.5524446    
     81500   1.9765021      0.11097258     0              2.0825334      2.3106761    
     82000   1.9091417      0.07220715     0              1.976576       1.8651115    
     82500   1.9114684      0.15187627     0              2.058566       2.6108657    
     83000   1.9811653      0.12087685     0              2.0970892      2.4303113    
     83500   2.0267445      0.10900798     0              2.1306857      2.2693918    
     84000   1.8944101      0.11993288     0              2.009607       2.3516575    
     84500   2.0026702      0.086056844    0              2.0837204      2.0600529    
     85000   1.9134572      0.1289696      0              2.0376432      2.3488778    
     85500   1.9082222      0.11091544     0              2.0143671      2.2439088    
     86000   1.9259219      0.14638927     0              2.0674964      2.5771805    
     86500   1.9252073      0.079682131    0              2.0000764      2.019045     
     87000   2.1637333      0.093798065    0              2.252122       2.1947259    
     87500   2.0903821      0.10116195     0              2.1863181      2.191614     
     88000   1.8945664      0.16980276     0              2.0596328      2.8019687    
     88500   1.8998309      0.11588876     0              2.0109701      2.2949171    
     89000   1.8862092      0.11830404     0              1.9997977      2.2040144    
     89500   1.805081       0.16416683     0              1.9647351      2.6910311    
     90000   1.8248444      0.14647098     0              1.9667533      2.4504539    
     90500   1.8855383      0.10120877     0              1.9820332      2.0659272    
     91000   1.8432504      0.097712964    0              1.9363552      2.0037865    
     91500   1.7304367      0.19264357     0              1.9187542      2.8895876    
     92000   1.7952834      0.094716994    0              1.8855122      2.0659706    
     92500   1.6892497      0.12077863     0              1.8058052      2.1984658    
     93000   1.5885109      0.096963354    0              1.6815029      1.9928196    
     93500   1.608013       0.087803759    0              1.6917967      1.9206833    
     94000   1.7806254      0.11169276     0              1.8878666      2.1602617    
     94500   1.8121103      0.10202086     0              1.9096009      2.2310843    
     95000   1.707888       0.10888301     0              1.8125013      2.0390137    
     95500   1.7545167      0.12300011     0              1.8731305      2.2348006    
     96000   1.681372       0.091328302    0              1.7684969      1.9355235    
     96500   1.6018146      0.11600429     0              1.7138143      2.2493642    
     97000   1.4818864      0.097528732    0              1.5757104      1.9642652    
     97500   1.4907006      0.099618113    0              1.586592       1.9550073    
     98000   1.6141734      0.086282729    0              1.6964207      1.9163485    
     98500   1.6740411      0.095433036    0              1.765289       1.9707698    
     99000   1.6030152      0.088022315    0              1.68703        1.9396611    
     99500   1.7019531      0.070776121    0              1.7684744      1.802773     
    100000   1.7272197      0.18431011     0              1.9072118      2.6827975    
    100500   1.5734483      0.11028193     0              1.6797966      1.9789545    
    101000   1.5861283      0.073965328    0              1.6561283      1.7768565    
    101500   1.602879       0.089451133    0              1.6883229      1.9355914    
    102000   1.5600626      0.078060116    0              1.6342226      1.8169081    
    102500   1.5776895      0.096805993    0              1.6705513      1.937011     
    103000   1.49547        0.086477317    0              1.5782086      1.837432     
    103500   1.5188417      0.08681208     0              1.6018567      1.7389926    
    104000   1.4907881      0.099691727    0              1.5867529      1.9758076    
    104500   1.4895573      0.10792454     0              1.5937579      2.077874     
    105000   1.2829256      0.080090159    0              1.3598084      1.6968993    
    105500   1.2832585      0.06572246     0              1.3457729      1.5288461    
    106000   1.308148       0.065704468    0              1.3705821      1.5244752    
    106500   1.3388318      0.062627184    0              1.3981119      1.4807269    
    107000   1.2772333      0.096509294    0              1.3705495      1.7872788    
    107500   1.3401178      0.044892704    0              1.3816602      1.35314      
    108000   1.2709611      0.071091716    0              1.3388754      1.5122842    
    108500   1.336533       0.058863193    0              1.3920548      1.5574575    
    109000   1.3149157      0.076671583    0              1.3883         1.6930284    
    109500   1.3057035      0.074358482    0              1.3767977      1.685808     
    110000   1.3245504      0.090074118    0              1.4113131      1.8359208    
    110500   1.3491841      0.062299094    0              1.4081102      1.5448626    
    111000   1.2088833      0.10048788     0              1.306349       1.8578456    
    111500   1.1787765      0.079728489    0              1.255558       1.5726264    
    112000   1.1321783      0.053133846    0              1.1824817      1.3005182    
    112500   1.0606085      0.078365683    0              1.1363227      1.5692632    
    113000   1.0982307      0.049944725    0              1.1454298      1.2663059    
    113500   1.1670433      0.069290063    0              1.2334158      1.4529237    
    114000   1.2143293      0.051960547    0              1.263254       1.3969136    
    114500   1.1688144      0.036965568    0              1.2028579      1.1420263    
    115000   1.180855       0.056107232    0              1.2340101      1.3784111    
    115500   1.0860794      0.07604757     0              1.1594118      1.5423868    
    116000   1.0511993      0.057422439    0              1.1059938      1.3552782    
    116500   1.0374771      0.044537468    0              1.0794209      1.1446229    
    117000   0.93191741     0.060060734    0              0.98964835     1.2968253    
    117500   1.0183704      0.035635241    0              1.0514597      1.0979016    
    118000   1.0277403      0.061982876    0              1.0871538      1.3928523    
    118500   1.0582434      0.048450852    0              1.1040487      1.2900846    
    119000   1.0454744      0.034603707    0              1.0774644      1.0978787    
    119500   1.0348707      0.044022723    0              1.0763063      1.1498659    
    120000   1.0195047      0.066460977    0              1.083417       1.4544047    
    120500   0.92419912     0.04737937     0              0.96926799     1.1372868    
    121000   0.92790133     0.045205475    0              0.97078705     1.137712     
    121500   0.90368179     0.046273959    0              0.94769654     1.1777569    
    122000   0.83011896     0.062541831    0              0.89058549     1.2047603    
    122500   0.74600751     0.038605475    0              0.78274797     0.9982163    
    123000   0.83521109     0.04485849     0              0.87798155     1.0869639    
    123500   0.85341875     0.053111477    0              0.90439668     1.2271567    
    124000   0.8676974      0.044557959    0              0.91008612     1.1254326    
    124500   0.88237322     0.047566087    0              0.92773337     1.1452519    
    125000   0.89697759     0.020848061    0              0.91558321     0.87916551   
    125500   0.81573973     0.058012319    0              0.8717127      1.2054289    
    126000   0.78864554     0.040961314    0              0.82763524     1.0226284    
    126500   0.77756272     0.02118787     0              0.79680668     0.79109836   
    127000   0.76738465     0.025996823    0              0.79146301     0.83595729   
    127500   0.70901219     0.032879764    0              0.74011942     0.92898677   
    128000   0.73709936     0.035390866    0              0.77064748     0.93554409   
    128500   0.70764035     0.039030837    0              0.74490209     0.99748462   
    129000   0.65922518     0.030159215    0              0.68773633     0.86498048   
    129500   0.68088062     0.029570829    0              0.70874924     0.81008232   
    130000   0.66117949     0.0251194      0              0.68464594     0.81905496   
    130500   0.66501019     0.039536743    0              0.70288441     0.92594645   
    131000   0.71271995     0.038656622    0              0.74959478     0.93005208   
    131500   0.68386107     0.044986388    0              0.7271378      1.0641188    
    132000   0.62070148     0.036107504    0              0.65525723     0.88344148   
    132500   0.57491057     0.023969342    0              0.59744264     0.75686817   
    133000   0.56385078     0.028985871    0              0.59142702     0.74053985   
    133500   0.58435153     0.024547793    0              0.60743844     0.78039642   
    134000   0.55978471     0.029591521    0              0.58797677     0.74543682   
    134500   0.59233658     0.020699493    0              0.61155523     0.63355775   
    135000   0.61346945     0.024678535    0              0.63661432     0.74481472   
    135500   0.521352       0.037124611    0              0.55717323     0.78673154   
    136000   0.51041262     0.027758764    0              0.53689535     0.76409885   
    136500   0.51721648     0.018728431    0              0.53465187     0.62597083   
    137000   0.44729409     0.015346651    0              0.4615225      0.55672807   
    137500   0.45644143     0.014478291    0              0.46977862     0.53515415   
    138000   0.41160218     0.014288922    0              0.42486209     0.53098155   
    138500   0.43694167     0.014012821    0              0.44986214     0.51978344   
    139000   0.4021081      0.031309565    0              0.4324124      0.66005271   
    139500   0.42042155     0.01778471     0              0.43715521     0.58230503   
    140000   0.41381385     0.013905423    0              0.42668474     0.48156719   
    140500   0.36200826     0.011583235    0              0.37268647     0.46953874   
    141000   0.33110845     0.0097184447   0              0.33999912     0.41829186   
    141500   0.30705932     0.022537665    0              0.32882933     0.58090941   
    142000   0.32217604     0.0091374932   0              0.33050809     0.36695894   
    142500   0.31970728     0.009184879    0              0.32809289     0.37788289   
    143000   0.31188034     0.012885657    0              0.3239863      0.43339094   
    143500   0.29658029     0.011546132    0              0.30738497     0.39372053   
    144000   0.30200016     0.012339331    0              0.31358449     0.40456225   
    144500   0.24738285     0.013172       0              0.25993639     0.38603461   
    145000   0.23996134     0.0088064077   0              0.24816785     0.35304535   
    145500   0.2261404      0.0040011891   0              0.22957624     0.21856136   
    146000   0.20676351     0.006660567    0              0.21290717     0.27236315   
    146500   0.19656487     0.0075285752   0              0.20360203     0.31120515   
    147000   0.18147723     0.0051950196   0              0.18621856     0.24835096   
    147500   0.15280756     0.0048702069   0              0.15729574     0.2120544    
    148000   0.15211098     0.0038657311   0              0.15559643     0.18864943   
    148500   0.13934634     0.0033818412   0              0.14237981     0.16979576   
    149000   0.13037707     0.003017771    0              0.13306889     0.17051356   
    149500   0.1251427      0.0017188533   0              0.1265487      0.11338186   
    150000   0.096037653    0.0020573324   0              0.097854891    0.12848729   
Loop time of 1.76492 on 48 procs for 100000 steps with 400 atoms

Performance: 48954068.998 tau/day, 56659.802 timesteps/s, 22.664 Matom-step/s
99.5% CPU use with 48 MPI tasks x 1 OpenMP threads

MPI task timing breakdown:
Section |  min time  |  avg time  |  max time  |%varavg| %total
---------------------------------------------------------------
Pair    | 0.013595   | 0.015114   | 0.016949   |   0.5 |  0.86
Neigh   | 0.025872   | 0.026711   | 0.029007   |   0.4 |  1.51
Comm    | 0.67558    | 0.80774    | 0.92859    |   9.4 | 45.77
Output  | 0.031194   | 0.031261   | 0.031849   |   0.1 |  1.77
Modify  | 0.40808    | 0.51708    | 0.64393    |  10.6 | 29.30
Other   |            | 0.367      |            |       | 20.79

Nlocal:        8.33333 ave          12 max           5 min
Histogram: 1 8 5 0 13 8 0 8 4 1
Nghost:        14.2708 ave          19 max           9 min
Histogram: 1 2 2 3 7 15 6 5 2 5
Neighs:         8.0625 ave          15 max           2 min
Histogram: 3 7 1 12 4 5 9 3 1 3

Total # of neighbors = 387
Ave neighs/atom = 0.9675
Neighbor list builds = 24777
Dangerous builds = 0
Total wall time: 0:00:03
LAMMPS (15 Sep 2022)
OMP_NUM_THREADS environment is not set. Defaulting to 1 thread. (src/comm.cpp:98)
  using 1 OpenMP thread(s) per MPI task
Lattice spacing in x,y,z = 1.2909944 1.2909944 1.2909944
Created orthogonal box = (0 0 -0.64549722) to (25.819889 25.819889 0.64549722)
  8 by 6 by 1 MPI processor grid
Created 400 atoms
  using lattice units in orthogonal box = (0 0 -0.64549722) to (25.819889 25.819889 0.64549722)
  create_atoms CPU = 0.002 seconds
Generated 0 of 0 mixed pair_coeff terms from geometric mixing rule
Neighbor list info ...
  update: every = 1 steps, delay = 0 steps, check = yes
  max neighbors/atom: 2000, page size: 100000
  master list distance cutoff = 1.3
  ghost atom cutoff = 1.3
  binsize = 0.65, bins = 40 40 2
  1 neighbor lists, perpetual/occasional/extra = 1 0 0
  (1) pair lj/cut, perpetual
      attributes: half, newton on
      pair build: half/bin/atomonly/newton
      stencil: half/bin/2d
      bin: standard
Setting up Verlet run ...
  Unit style    : lj
  Current step  : 0
  Time step     : 0.01
Per MPI rank memory allocation (min/avg/max) = 3.047 | 3.047 | 3.047 Mbytes
   Step          Temp          E_pair         E_mol          TotEng         Press     
         0   3              0              0              2.9925         1.7955       
       500   2.8523429      0.31520757     0              3.1604196      5.2817081    
      1000   2.9651729      0.2557371      0              3.2134971      4.8603381    
      1500   2.9911028      0.32814008     0              3.3117652      5.5339673    
      2000   3.2966427      0.18826485     0              3.4766659      4.377228     
      2500   3.0515858      0.31037217     0              3.354329       5.5701824    
      3000   3.1373386      0.32157735     0              3.4510726      5.5862805    
      3500   3.1414385      0.3511224      0              3.4847073      5.8870288    
      4000   3.1746617      0.31965        0              3.486375       5.3951945    
      4500   3.1131119      0.29363126     0              3.3989604      5.2515372    
      5000   3.1519317      0.32683055     0              3.4708824      5.6239961    
      5500   3.2321356      0.23282628     0              3.4568815      4.7703694    
      6000   3.1958781      0.30443807     0              3.4923265      5.4658181    
      6500   3.1670756      0.31099593     0              3.4701539      5.436902     
      7000   3.0614737      0.33663515     0              3.3904551      5.6088903    
      7500   3.0907992      0.33147923     0              3.4145514      5.7326789    
      8000   2.8859913      0.23243652     0              3.1112129      4.5618639    
      8500   2.8845498      0.23162539     0              3.1089638      4.5253446    
      9000   2.9113209      0.24347643     0              3.147519       4.8155064    
      9500   2.9150646      0.30396276     0              3.2117397      5.2026262    
     10000   2.869883       0.29986251     0              3.1625708      4.934144     
     10500   2.8755342      0.28144479     0              3.1497902      4.8118145    
     11000   2.9083193      0.28268173     0              3.1837302      5.1969641    
     11500   2.9226372      0.3718245      0              3.2871552      5.5764331    
     12000   2.9844596      0.23595968     0              3.2129582      4.7833136    
     12500   3.0753385      0.26649417     0              3.3341443      4.9570275    
     13000   3.1437244      0.23292766     0              3.3687928      4.8267851    
     13500   3.1601838      0.27384012     0              3.4261234      5.0001087    
     14000   3.1969775      0.40137274     0              3.5903578      6.0682373    
     14500   3.1136336      0.37190566     0              3.4777552      6.1816404    
     15000   3.1657538      0.33083537     0              3.4886748      5.5462105    
     15500   3.2788994      0.37340318     0              3.6441053      6.0696837    
     16000   3.1608113      0.2497053      0              3.4026146      5.1059903    
     16500   2.9489977      0.34906804     0              3.2906932      5.6528815    
     17000   2.9873109      0.4160403      0              3.3958829      6.1994001    
     17500   2.9681288      0.31438383     0              3.2750923      5.3161478    
     18000   2.8552153      0.244395       0              3.0924723      4.7078894    
     18500   3.0136357      0.35530372     0              3.3614054      5.6533533    
     19000   2.9143088      0.33332806     0              3.2403511      5.3609486    
     19500   2.8522535      0.29218914     0              3.137312       4.9052096    
     20000   2.8392639      0.28514182     0              3.1173076      4.9544774    
     20500   2.8865177      0.27995632     0              3.1592577      5.1691953    
     21000   2.9073483      0.28188117     0              3.1819611      5.0495395    
     21500   2.7678651      0.18366686     0              2.9446123      4.0149016    
     22000   2.801332       0.2454187      0              3.0397474      4.7162378    
     22500   2.9951355      0.234305       0              3.2219527      4.6880972    
     23000   2.8237485      0.38011774     0              3.1968069      5.9344787    
     23500   2.9152772      0.23495059     0              3.1429396      4.678191     
     24000   3.0552915      0.25785957     0              3.3055129      5.0222423    
     24500   3.0737771      0.25677157     0              3.3228643      5.0091403    
     25000   3.0709645      0.30455817     0              3.3678452      5.5212406    
     25500   3.0002224      0.2622322      0              3.254954       4.9570925    
     26000   3.1760343      0.26363792     0              3.4317321      4.9787816    
     26500   3.0735094      0.35099611     0              3.4168217      5.7227602    
     27000   3.0123435      0.33826974     0              3.3430823      5.7114451    
     27500   3.1428119      0.2796151      0              3.4145699      5.1342153    
     28000   3.0108296      0.37732855     0              3.3806311      5.9626651    
     28500   3.1528795      0.30387214     0              3.4488694      5.3329758    
     29000   3.0224842      0.36997473     0              3.3849027      5.9196692    
     29500   3.0756325      0.35340503     0              3.4213484      5.848097     
     30000   3.1696316      0.29646023     0              3.4581678      5.1026552    
     30500   3.0450902      0.30376483     0              3.3412423      5.424585     
     31000   2.9255046      0.32939536     0              3.2475862      5.542362     
     31500   2.8469407      0.26976441     0              3.1095877      4.9809394    
     32000   2.986068       0.25453915     0              3.233142       5.046077     
     32500   3.0678049      0.22294278     0              3.2830781      4.7018002    
     33000   3.1537215      0.25328902     0              3.3991262      5.0267453    
     33500   3.0493731      0.33171737     0              3.373467       5.6044565    
     34000   2.9455025      0.36282711     0              3.3009658      5.6272962    
     34500   2.7121869      0.2869025      0              2.992309       5.1744316    
     35000   2.8940459      0.21260347     0              3.0994143      4.5081697    
     35500   2.8160866      0.33172821     0              3.1407746      5.42275      
     36000   2.8937662      0.34949729     0              3.2360291      5.6678992    
     36500   2.8641943      0.25282859     0              3.1098624      4.8402611    
     37000   2.4628633      0.33270712     0              2.7894133      5.1832081    
     37500   2.8338335      0.28926779     0              3.1160167      4.9835368    
     38000   2.8706555      0.36980411     0              3.2332829      5.7616914    
     38500   2.848959       0.27776506     0              3.1196017      5.142215     
     39000   2.8438345      0.34479329     0              3.1815182      5.4806842    
     39500   2.8837733      0.34631959     0              3.2228834      5.785796     
     40000   3.0508693      0.28350292     0              3.326745       5.1804795    
     40500   3.0806774      0.2822293      0              3.355205       4.9498147    
     41000   2.9780827      0.29491696     0              3.2655545      5.1160382    
     41500   3.0807201      0.33414355     0              3.4071618      5.5590818    
     42000   3.1877205      0.42335235     0              3.6031035      6.4997413    
     42500   3.2701945      0.17918069     0              3.4411997      4.5047047    
     43000   3.1142214      0.30511781     0              3.4115537      5.4091367    
     43500   3.0899489      0.28116876     0              3.3633927      5.1864926    
     44000   2.8790699      0.2684417      0              3.1403139      4.9720192    
     44500   3.0222532      0.28472486     0              3.2994224      5.2710825    
     45000   2.9510876      0.27109861     0              3.2148085      5.0816203    
     45500   2.9359498      0.38832819     0              3.3169381      5.9551952    
     46000   2.9827138      0.29913128     0              3.2743883      5.3888871    
     46500   3.1095135      0.25466883     0              3.3564085      4.9117167    
     47000   3.0211028      0.24835759     0              3.2619076      4.8370485    
     47500   2.9433188      0.33260248     0              3.268563       5.4476125    
     48000   3.0754464      0.290204       0              3.3579617      5.1047628    
     48500   3.1085862      0.2128839      0              3.3136987      4.588517     
     49000   2.8493203      0.30900509     0              3.1512021      5.2135599    
     49500   2.8741559      0.34926466     0              3.2162351      5.4169115    
     50000   2.9350134      0.24910154     0              3.1767775      4.9910134    
Loop time of 0.924382 on 48 procs for 50000 steps with 400 atoms

Performance: 46733946.766 tau/day, 54090.216 timesteps/s, 21.636 Matom-step/s
99.4% CPU use with 48 MPI tasks x 1 OpenMP threads

MPI task timing breakdown:
Section |  min time  |  avg time  |  max time  |%varavg| %total
---------------------------------------------------------------
Pair    | 0.0087904  | 0.0093473  | 0.010039   |   0.3 |  1.01
Neigh   | 0.01885    | 0.019732   | 0.021017   |   0.3 |  2.13
Comm    | 0.3783     | 0.44694    | 0.51153    |   6.6 | 48.35
Output  | 0.0020538  | 0.0021702  | 0.0058601  |   1.2 |  0.23
Modify  | 0.19774    | 0.2569     | 0.32291    |   8.0 | 27.79
Other   |            | 0.1893     |            |       | 20.48

Nlocal:        8.33333 ave          12 max           6 min
Histogram: 3 11 0 14 0 12 4 0 3 1
Nghost:        16.0625 ave          20 max          12 min
Histogram: 1 4 10 6 0 9 3 7 4 4
Neighs:        10.2917 ave          23 max           4 min
Histogram: 2 11 10 8 8 6 2 0 0 1

Total # of neighbors = 494
Ave neighs/atom = 1.235
Neighbor list builds = 16928
Dangerous builds = 0
Generated 0 of 0 mixed pair_coeff terms from geometric mixing rule
Setting up Verlet run ...
  Unit style    : lj
  Current step  : 50000
  Time step     : 0.01
Per MPI rank memory allocation (min/avg/max) = 3.068 | 3.068 | 3.068 Mbytes
   Step          Temp          E_pair         E_mol          TotEng         Press     
     50000   2.9350134      0.24910154     0              3.1767775      4.9910134    
     50500   2.8900093      0.30807671     0              3.190861       5.2579972    
     51000   2.9534522      0.31742126     0              3.2634899      5.5182255    
     51500   3.0473353      0.29360832     0              3.3333253      5.2715968    
     52000   3.3675382      0.26189049     0              3.6210098      5.1937425    
     52500   3.2959967      0.18997585     0              3.4777326      4.5251902    
     53000   2.9977639      0.32430065     0              3.3145702      5.5607181    
     53500   2.9104183      0.29938508     0              3.2025273      5.1624173    
     54000   2.8289491      0.23217303     0              3.0540497      4.4172595    
     54500   2.9679906      0.17914046     0              3.139711       4.3005181    
     55000   2.7106227      0.3004258      0              3.004272       5.1291677    
     55500   2.8043852      0.21353318     0              3.0109074      4.4503892    
     56000   2.6579805      0.29420161     0              2.9455372      5.0425639    
     56500   2.8552696      0.29725215     0              3.1453836      5.093102     
     57000   2.7943092      0.38039908     0              3.1677225      5.8642755    
     57500   2.9707507      0.29244867     0              3.2557725      5.4212147    
     58000   2.7695982      0.36760218     0              3.1302764      5.5739319    
     58500   2.8768688      0.28083248     0              3.1505091      5.1271732    
     59000   3.1981969      0.2539456      0              3.444147       4.8931091    
     59500   2.907924       0.31455084     0              3.2152051      5.2104938    
     60000   2.7499348      0.29095021     0              3.0340102      5.2575442    
     60500   2.6231745      0.25196373     0              2.8685803      4.6000096    
     61000   2.6294785      0.23747907     0              2.8603838      4.4026307    
     61500   2.4293456      0.23418005     0              2.6574523      4.2990773    
     62000   2.5908208      0.19011401     0              2.7744578      4.0762484    
     62500   2.6994715      0.20121341     0              2.8939362      4.3664037    
     63000   2.5198074      0.28946012     0              2.802968       4.9191844    
     63500   2.6432243      0.28380465     0              2.9204209      4.6915902    
     64000   2.8572848      0.21265698     0              3.0627985      4.3740307    
     64500   2.8069842      0.26811149     0              3.0680782      4.9365514    
     65000   2.5634316      0.29942963     0              2.8564526      4.9420391    
     65500   2.5593619      0.24039224     0              2.7933557      4.3676456    
     66000   2.3571218      0.30937716     0              2.6606061      5.0448338    
     66500   2.3035678      0.24707714     0              2.544886       4.4574654    
     67000   2.5050888      0.21396581     0              2.7127919      4.3437241    
     67500   2.5690947      0.24469353     0              2.8073655      4.5883173    
     68000   2.5356251      0.33614315     0              2.8654292      5.3801249    
     68500   2.5310216      0.21995064     0              2.7446447      4.2706404    
     69000   2.6516364      0.2331543      0              2.8781616      4.5592114    
     69500   2.4974644      0.19525806     0              2.6864788      4.113498     
     70000   2.3653258      0.32294141     0              2.6823539      5.0272729    
     70500   2.5752612      0.24754324     0              2.8163663      4.5612693    
     71000   2.4256757      0.23824478     0              2.6578563      4.3653945    
     71500   2.438359       0.28826589     0              2.720529       4.8668898    
     72000   2.4429921      0.29965295     0              2.7365375      4.7857044    
     72500   2.5191864      0.27548918     0              2.7883776      4.8209651    
     73000   2.3161108      0.27154061     0              2.5818611      4.4337136    
     73500   2.2961184      0.20576365     0              2.4961417      4.0424683    
     74000   2.2359502      0.2226265      0              2.4529868      4.110299     
     74500   2.2356202      0.19842527     0              2.4284564      3.9434188    
     75000   2.1461308      0.22050465     0              2.3612701      4.0940191    
     75500   2.252257       0.2069412      0              2.4535676      4.0534374    
     76000   2.3402605      0.17204595     0              2.5064558      3.6559603    
     76500   2.343419       0.20204864     0              2.5396091      3.9158962    
     77000   2.2401418      0.21508551     0              2.449627       4.1893387    
     77500   2.3011523      0.23685459     0              2.532254       4.2411409    
     78000   2.2589297      0.14971866     0              2.4030011      3.5497767    
     78500   2.2444689      0.17124981     0              2.4101075      3.8870399    
     79000   2.2644115      0.17212476     0              2.4308752      3.6783666    
     79500   2.1048475      0.20077287     0              2.3003582      3.9340562    
     80000   2.1154981      0.18226871     0              2.292478       3.734869     
     80500   2.0422467      0.1955578      0              2.2326989      3.7663329    
     81000   2.0476524      0.15456917     0              2.1971025      3.451143     
     81500   1.9055352      0.22135485     0              2.1221263      3.7461041    
     82000   1.8176848      0.16354871     0              1.9766893      3.3149177    
     82500   2.0341887      0.17346713     0              2.2025704      3.5620827    
     83000   2.026022       0.21251369     0              2.2334707      3.926895     
     83500   2.0469794      0.2164612      0              2.2583231      4.0550375    
     84000   2.0460824      0.18978205     0              2.2307492      3.6288884    
     84500   2.1225586      0.23412549     0              2.3513777      4.2459676    
     85000   2.0327188      0.22523162     0              2.2528686      4.0684169    
     85500   2.0871793      0.19951927     0              2.2814806      3.8263456    
     86000   2.0308674      0.18715669     0              2.212947       3.6467266    
     86500   1.9925642      0.16161908     0              2.1492018      3.5418471    
     87000   1.8008281      0.19697846     0              1.9933045      3.5542934    
     87500   1.8037338      0.10652695     0              1.9057514      2.7674339    
     88000   1.8583742      0.10862406     0              1.9623523      2.7663808    
     88500   1.8161053      0.17702093     0              1.988586       3.5719037    
     89000   1.6269812      0.18287976     0              1.8057935      3.3668691    
     89500   1.7721388      0.12907322     0              1.8967816      2.9938209    
     90000   1.8973525      0.12689531     0              2.0195044      2.9106264    
     90500   1.8427261      0.16607203     0              2.0041913      3.3427342    
     91000   1.881216       0.19662782     0              2.0731408      3.5464864    
     91500   1.8646403      0.1625982      0              2.0225769      3.3723735    
     92000   1.9214053      0.16101294     0              2.0776148      3.4712216    
     92500   1.7847636      0.20488225     0              1.9851839      3.7389762    
     93000   1.7035497      0.15167985     0              1.8509707      3.2598461    
     93500   1.5980864      0.22062225     0              1.8147134      3.7624822    
     94000   1.6625707      0.14915275     0              1.807567       3.0496925    
     94500   1.6738149      0.15151982     0              1.8211502      3.2030421    
     95000   1.6434011      0.11967182     0              1.7589644      2.823062     
     95500   1.7028732      0.13164005     0              1.8302561      2.9351675    
     96000   1.6976065      0.18595176     0              1.8793143      3.5486745    
     96500   1.8309885      0.1629066      0              1.9893177      3.3786468    
     97000   1.7734769      0.17032681     0              1.93937        3.3155245    
     97500   1.6274438      0.17893833     0              1.8023135      3.4694526    
     98000   1.5526088      0.13486594     0              1.6835932      2.9167023    
     98500   1.4904675      0.1290976      0              1.6158389      2.8530172    
     99000   1.5113501      0.092137663    0              1.5997094      2.4239576    
     99500   1.6668192      0.13078614     0              1.7934382      2.8248306    
    100000   1.5370587      0.14710031     0              1.6803163      3.058103     
    100500   1.5759887      0.12802606     0              1.7000748      2.767728     
    101000   1.4843321      0.14103496     0              1.6216562      2.8984563    
    101500   1.4753107      0.1195848      0              1.5912073      2.6429316    
    102000   1.4693318      0.1243032      0              1.5899617      2.7312856    
    102500   1.4644584      0.15791648     0              1.6187138      3.0564587    
    103000   1.4918851      0.165355       0              1.6535104      3.0354212    
    103500   1.5805545      0.14642032     0              1.7230234      3.0646885    
    104000   1.5739407      0.10067434     0              1.6706802      2.4544906    
    104500   1.4001666      0.13869744     0              1.5353636      2.8601327    
    105000   1.3632697      0.096830177    0              1.4566917      2.4046435    
    105500   1.3361933      0.088540925    0              1.4213937      2.2819178    
    106000   1.2279278      0.14734947     0              1.3722075      2.7455335    
    106500   1.2210371      0.128215       0              1.3461995      2.5531132    
    107000   1.2763395      0.16381921     0              1.4369678      2.9127458    
    107500   1.296436       0.13820312     0              1.431398       2.8210593    
    108000   1.384507       0.10334129     0              1.484387       2.5476383    
    108500   1.422238       0.085087464    0              1.5037699      2.2309803    
    109000   1.389509       0.080367092    0              1.4664023      2.2392721    
    109500   1.2930995      0.12182137     0              1.4116881      2.5366817    
    110000   1.2846135      0.14385799     0              1.42526        2.8137894    
    110500   1.2256842      0.095194775    0              1.3178148      2.1988875    
    111000   1.2325883      0.084731966    0              1.3142388      2.1558968    
    111500   1.1757552      0.086888186    0              1.259704       2.1471241    
    112000   1.1318239      0.10769749     0              1.2366918      2.3507632    
    112500   1.1134942      0.060000656    0              1.1707111      1.8580971    
    113000   1.1262144      0.086144437    0              1.2095433      2.0970874    
    113500   1.1666663      0.090747594    0              1.2544972      2.2104411    
    114000   1.1632943      0.11899631     0              1.2793823      2.5902389    
    114500   1.1791928      0.078352912    0              1.2545977      2.0499399    
    115000   1.1459692      0.098496747    0              1.241601       2.3371512    
    115500   1.1180295      0.10000854     0              1.215243       2.2218005    
    116000   1.112461       0.10022042     0              1.2099002      2.2269391    
    116500   0.98494137     0.092878386    0              1.0753574      2.0690574    
    117000   1.0254666      0.059504555    0              1.0824075      1.715106     
    117500   0.98043314     0.087554464    0              1.0655365      2.0175724    
    118000   0.98505617     0.073252322    0              1.0558459      1.8741352    
    118500   0.98356462     0.088559136    0              1.0696648      2.0868857    
    119000   0.93844278     0.071594945    0              1.0076916      1.8225787    
    119500   0.96739395     0.092352591    0              1.0573281      2.1417951    
    120000   1.0163587      0.066264203    0              1.080082       1.7754371    
    120500   1.0418189      0.071165693    0              1.1103801      1.860341     
    121000   0.95591979     0.074160415    0              1.0276904      1.8322079    
    121500   0.9500613      0.064439542    0              1.0121257      1.7394256    
    122000   0.89559315     0.069696991    0              0.96305116     1.8725126    
    122500   0.85919855     0.071202093    0              0.92825264     1.7413983    
    123000   0.82241415     0.054966608    0              0.87532472     1.5274715    
    123500   0.82593963     0.043899604    0              0.86777438     1.380091     
    124000   0.79361835     0.081068041    0              0.87270235     1.9205075    
    124500   0.82306797     0.054013093    0              0.87502339     1.4445831    
    125000   0.77880425     0.0523096      0              0.82916684     1.3569815    
    125500   0.72666602     0.047963608    0              0.77281296     1.3633666    
    126000   0.76901344     0.0282681      0              0.79535901     1.1026587    
    126500   0.74427517     0.070438641    0              0.81285312     1.6524714    
    127000   0.74329188     0.047955795    0              0.78938944     1.3305643    
    127500   0.7917941      0.036380516    0              0.82619513     1.2582856    
    128000   0.78093142     0.04881781     0              0.8277969      1.4341209    
    128500   0.74299985     0.067392511    0              0.80853486     1.6074617    
    129000   0.71810131     0.067175332    0              0.78348139     1.6091691    
    129500   0.69818293     0.059239568    0              0.75567704     1.5501631    
    130000   0.74892006     0.048179246    0              0.79522701     1.3957809    
    130500   0.72745753     0.034430608    0              0.7600695      1.163151     
    131000   0.67391075     0.055443306    0              0.72766928     1.5004774    
    131500   0.59957429     0.045881502    0              0.64395686     1.2089575    
    132000   0.59390588     0.043031168    0              0.63545228     1.2226858    
    132500   0.57077765     0.037917612    0              0.60726831     1.1528507    
    133000   0.53629627     0.051780007    0              0.58673554     1.3115375    
    133500   0.55496189     0.032572301    0              0.58614678     1.043526     
    134000   0.56462227     0.038392649    0              0.60160336     1.1935611    
    134500   0.55127264     0.048188615    0              0.59808307     1.2855939    
    135000   0.56220902     0.040789972    0              0.60159347     1.2255891    
    135500   0.52249164     0.041017977    0              0.56220339     1.1132247    
    136000   0.53118698     0.029255847    0              0.55911486     1.0018031    
    136500   0.49981319     0.035244349    0              0.53380801     1.0413738    
    137000   0.49987277     0.01973007     0              0.51835316     0.79720537   
    137500   0.4814933      0.026487579    0              0.50677715     0.99734335   
    138000   0.43042529     0.024498955    0              0.45384818     0.79719375   
    138500   0.41350711     0.023043085    0              0.43551643     0.80195217   
    139000   0.39097859     0.019753346    0              0.40975449     0.73246882   
    139500   0.38342862     0.021776291    0              0.40424634     0.73946236   
    140000   0.38904641     0.025140461    0              0.41321425     0.72625899   
    140500   0.39276568     0.030273499    0              0.42205726     0.92844042   
    141000   0.37216903     0.017240479    0              0.38847908     0.66048328   
    141500   0.35662854     0.013435461    0              0.36917243     0.60888874   
    142000   0.33649096     0.016904996    0              0.35255473     0.5924293    
    142500   0.29944095     0.018681842    0              0.31737419     0.73481042   
    143000   0.27622723     0.016912241    0              0.2924489      0.65602499   
    143500   0.27938021     0.018236507    0              0.29691827     0.65264094   
    144000   0.26052728     0.011396062    0              0.27127202     0.52326474   
    144500   0.26091898     0.0089033468   0              0.26917003     0.46795616   
    145000   0.21992918     0.010513687    0              0.22989305     0.42319945   
    145500   0.22299916     0.0077460461   0              0.23018771     0.40582252   
    146000   0.21353847     0.0094373698   0              0.222442       0.45612745   
    146500   0.19590611     0.012440186    0              0.20785653     0.48915772   
    147000   0.19447825     0.0085431223   0              0.20253518     0.41018265   
    147500   0.16842465     0.009804986    0              0.17780857     0.42895285   
    148000   0.16428347     0.003815672    0              0.16768844     0.29127312   
    148500   0.1421642      0.004276197    0              0.14608499     0.27026965   
    149000   0.12178769     0.0058318631   0              0.12731509     0.30583076   
    149500   0.11202879     0.0047838496   0              0.11653256     0.24453655   
    150000   0.099087881    0.0062853468   0              0.10512551     0.2959958    
Loop time of 1.88936 on 48 procs for 100000 steps with 400 atoms

Performance: 45729852.940 tau/day, 52928.071 timesteps/s, 21.171 Matom-step/s
99.3% CPU use with 48 MPI tasks x 1 OpenMP threads

MPI task timing breakdown:
Section |  min time  |  avg time  |  max time  |%varavg| %total
---------------------------------------------------------------
Pair    | 0.015779   | 0.016946   | 0.017982   |   0.4 |  0.90
Neigh   | 0.027251   | 0.028603   | 0.030144   |   0.3 |  1.51
Comm    | 0.72475    | 0.86309    | 0.99547    |   9.5 | 45.68
Output  | 0.031617   | 0.031671   | 0.032294   |   0.1 |  1.68
Modify  | 0.4337     | 0.56343    | 0.69851    |  10.8 | 29.82
Other   |            | 0.3856     |            |       | 20.41

Nlocal:        8.33333 ave          11 max           5 min
Histogram: 1 2 0 11 0 7 21 0 5 1
Nghost:        15.7292 ave          21 max          10 min
Histogram: 2 2 5 4 8 4 13 8 1 1
Neighs:        10.5833 ave          19 max           2 min
Histogram: 1 3 5 6 8 11 2 9 2 1

Total # of neighbors = 508
Ave neighs/atom = 1.27
Neighbor list builds = 24647
Dangerous builds = 0
Total wall time: 0:00:02
LAMMPS (15 Sep 2022)
OMP_NUM_THREADS environment is not set. Defaulting to 1 thread. (src/comm.cpp:98)
  using 1 OpenMP thread(s) per MPI task
Lattice spacing in x,y,z = 1.1952286 1.1952286 1.1952286
Created orthogonal box = (0 0 -0.5976143) to (23.904572 23.904572 0.5976143)
  8 by 6 by 1 MPI processor grid
Created 400 atoms
  using lattice units in orthogonal box = (0 0 -0.5976143) to (23.904572 23.904572 0.5976143)
  create_atoms CPU = 0.001 seconds
Generated 0 of 0 mixed pair_coeff terms from geometric mixing rule
Neighbor list info ...
  update: every = 1 steps, delay = 0 steps, check = yes
  max neighbors/atom: 2000, page size: 100000
  master list distance cutoff = 1.3
  ghost atom cutoff = 1.3
  binsize = 0.65, bins = 37 37 2
  1 neighbor lists, perpetual/occasional/extra = 1 0 0
  (1) pair lj/cut, perpetual
      attributes: half, newton on
      pair build: half/bin/atomonly/newton
      stencil: half/bin/2d
      bin: standard
Setting up Verlet run ...
  Unit style    : lj
  Current step  : 0
  Time step     : 0.01
Per MPI rank memory allocation (min/avg/max) = 3.047 | 3.047 | 3.047 Mbytes
   Step          Temp          E_pair         E_mol          TotEng         Press     
         0   3              0              0              2.9925         2.09475      
       500   2.9186037      0.40845351     0              3.3197607      7.7609311    
      1000   2.8373839      0.47644471     0              3.3067352      8.4107178    
      1500   2.8562801      0.41722023     0              3.2663596      7.8382082    
      2000   2.9193082      0.41605646     0              3.3280664      7.7443166    
      2500   2.9617773      0.42212821     0              3.3765011      7.6922375    
      3000   2.8718993      0.39643565     0              3.2611552      7.6730208    
      3500   2.7399249      0.44149443     0              3.1745695      7.6251481    
      4000   2.7843433      0.32706121     0              3.1044437      6.6584218    
      4500   2.8441428      0.47208909     0              3.3091215      8.040407     
      5000   3.0186746      0.39421618     0              3.4053441      7.2465016    
      5500   3.0649751      0.41525923     0              3.4725719      7.4142986    
      6000   2.8330059      0.5941699      0              3.4200933      9.155994     
      6500   3.0559054      0.42094275     0              3.4692084      7.6814445    
      7000   3.0161212      0.49502621     0              3.5036071      8.5018138    
      7500   2.8492015      0.55736019     0              3.3994387      9.0644791    
      8000   2.9661238      0.51003883     0              3.4687473      8.8937349    
      8500   3.1426566      0.39634873     0              3.5311487      7.4543249    
      9000   3.1445548      0.51120628     0              3.6478997      8.9887649    
      9500   3.3313627      0.50813708     0              3.8311714      8.8245902    
     10000   3.1207614      0.42676159     0              3.5397211      8.30355      
     10500   3.01607        0.43023792     0              3.4387677      7.7537095    
     11000   3.0392196      0.45342343     0              3.4850449      7.9654329    
     11500   3.1226715      0.39604603     0              3.5109108      7.9261182    
     12000   3.4725492      0.51586956     0              3.9797374      9.1305959    
     12500   3.1072329      0.58144891     0              3.6809137      9.2425828    
     13000   3.017339       0.47715046     0              3.4869461      8.6462915    
     13500   3.0185134      0.40156583     0              3.4125329      7.7945467    
     14000   3.0964253      0.38245218     0              3.4711364      7.6015902    
     14500   2.9254881      0.52521414     0              3.4433885      8.9854262    
     15000   2.9581966      0.47183484     0              3.4226359      8.3896943    
     15500   2.8069355      0.40408588     0              3.2040041      7.7312866    
     16000   2.8336763      0.35130263     0              3.1778947      6.9452854    
     16500   3.020488       0.40683803     0              3.4197748      7.7483284    
     17000   3.1561701      0.4420939      0              3.5903736      8.0868793    
     17500   3.2437755      0.46281436     0              3.6984805      8.1662942    
     18000   3.190894       0.51384531     0              3.6967621      8.9442957    
     18500   3.0272075      0.39410079     0              3.4137403      7.6803612    
     19000   2.94443        0.42589773     0              3.3629666      7.9040489    
     19500   2.9232226      0.46888921     0              3.3848037      8.2502887    
     20000   2.991652       0.38477196     0              3.3689448      7.5745682    
     20500   3.0358084      0.44450673     0              3.4727256      7.9175795    
     21000   2.7711155      0.39720924     0              3.161397       7.1327357    
     21500   2.7888426      0.42681765     0              3.2086881      7.6634156    
     22000   2.9394592      0.48765027     0              3.4197608      8.476484     
     22500   3.0547567      0.4939244      0              3.5410442      8.5063242    
     23000   2.906937       0.6347642      0              3.5344339      9.5192252    
     23500   2.926185       0.58426661     0              3.5031361      9.6631092    
     24000   3.1218035      0.53863774     0              3.6526367      8.9918043    
     24500   3.09464        0.43165688     0              3.5185603      8.0398312    
     25000   3.0400688      0.47469249     0              3.5071611      8.135929     
     25500   3.2219056      0.40426825     0              3.6181191      8.0994123    
     26000   2.9315973      0.54100167     0              3.46527        8.9444256    
     26500   2.908857       0.46265265     0              3.3642375      8.4473632    
     27000   2.943141       0.35456737     0              3.2903506      7.2308969    
     27500   2.8322461      0.40030065     0              3.2254662      7.6639986    
     28000   3.1209686      0.40823665     0              3.5214028      7.933008     
     28500   3.1099978      0.54515629     0              3.6473791      8.9164339    
     29000   3.1856275      0.39731089     0              3.5749743      7.7873217    
     29500   3.0238001      0.46392321     0              3.4801638      7.8344569    
     30000   3.0722484      0.51506284     0              3.5796306      8.6522234    
     30500   3.0510357      0.42442848     0              3.4678366      7.8962912    
     31000   2.9962313      0.46609934     0              3.4548401      8.2075136    
     31500   2.6709923      0.41189544     0              3.0762102      7.6120923    
     32000   2.8180804      0.45559671     0              3.2666319      7.9741221    
     32500   2.9329545      0.4238893      0              3.3495114      7.902738     
     33000   3.0643071      0.39479698     0              3.4514433      7.6996794    
     33500   3.0174868      0.4655037      0              3.4754468      8.4985471    
     34000   2.9993427      0.48864361     0              3.4804879      8.4155081    
     34500   2.958674       0.53304319     0              3.4843205      9.1606892    
     35000   2.9344684      0.56349723     0              3.4906295      8.7168501    
     35500   3.0970915      0.53053809     0              3.6198869      8.8895421    
     36000   3.1762272      0.27820262     0              3.4464893      6.5143291    
     36500   2.9237747      0.44887276     0              3.365338       8.0453715    
     37000   2.8760929      0.42425663     0              3.2931593      7.919085     
     37500   2.9384519      0.45908838     0              3.3901942      7.8922983    
     38000   2.9864647      0.49377325     0              3.4727718      8.5692604    
     38500   3.0168802      0.43117028     0              3.4405082      8.1852063    
     39000   3.1607877      0.36052083     0              3.5134066      7.1564282    
     39500   3.2689338      0.37602795     0              3.6367894      7.5280354    
     40000   3.2727014      0.58291994     0              3.8474395      9.5777642    
     40500   3.264701       0.54091631     0              3.7974556      8.8828626    
     41000   3.0137806      0.46054442     0              3.4667906      7.6957263    
     41500   2.9414092      0.50034569     0              3.4344014      8.4544474    
     42000   2.9752316      0.51803716     0              3.4858306      8.6873918    
     42500   2.944724       0.54604761     0              3.4834098      9.1903634    
     43000   2.9979426      0.55254096     0              3.5429887      9.117159     
     43500   3.0634737      0.48792001     0              3.543735       8.4546601    
     44000   3.0359605      0.54798458     0              3.5763552      9.3013601    
     44500   3.1972627      0.41005386     0              3.5993234      8.0570666    
     45000   3.2590405      0.43408215     0              3.6849751      8.1076752    
     45500   3.0480963      0.48549365     0              3.5259698      8.5870326    
     46000   2.8826016      0.42107252     0              3.2964676      7.7818433    
     46500   2.8064525      0.45663754     0              3.2560739      8.187693     
     47000   2.8882246      0.36228761     0              3.2432916      7.3890372    
     47500   2.8740371      0.39639061     0              3.2632426      7.1351255    
     48000   2.8969713      0.44496119     0              3.33469        7.8964421    
     48500   2.7860784      0.44938354     0              3.2284967      7.8943994    
     49000   2.8770608      0.32126309     0              3.1911312      6.6300093    
     49500   2.7482653      0.44329796     0              3.1846926      7.9551072    
     50000   3.003564       0.37375181     0              3.3698069      7.2989925    
Loop time of 0.970822 on 48 procs for 50000 steps with 400 atoms

Performance: 44498351.495 tau/day, 51502.722 timesteps/s, 20.601 Matom-step/s
99.2% CPU use with 48 MPI tasks x 1 OpenMP threads

MPI task timing breakdown:
Section |  min time  |  avg time  |  max time  |%varavg| %total
---------------------------------------------------------------
Pair    | 0.010236   | 0.010818   | 0.011563   |   0.3 |  1.11
Neigh   | 0.02019    | 0.021124   | 0.023619   |   0.4 |  2.18
Comm    | 0.3957     | 0.46523    | 0.52621    |   6.6 | 47.92
Output  | 0.0020618  | 0.0021719  | 0.0058598  |   1.2 |  0.22
Modify  | 0.21609    | 0.27147    | 0.33843    |   7.8 | 27.96
Other   |            | 0.2        |            |       | 20.60

Nlocal:        8.33333 ave          11 max           6 min
Histogram: 2 0 11 0 13 0 15 0 5 2
Nghost:        17.0625 ave          21 max          13 min
Histogram: 2 0 5 14 0 9 5 10 2 1
Neighs:         13.375 ave          24 max           7 min
Histogram: 4 7 12 5 8 5 2 2 2 1

Total # of neighbors = 642
Ave neighs/atom = 1.605
Neighbor list builds = 16868
Dangerous builds = 0
Generated 0 of 0 mixed pair_coeff terms from geometric mixing rule
Setting up Verlet run ...
  Unit style    : lj
  Current step  : 50000
  Time step     : 0.01
Per MPI rank memory allocation (min/avg/max) = 3.068 | 3.068 | 3.068 Mbytes
   Step          Temp          E_pair         E_mol          TotEng         Press     
     50000   3.003564       0.37375181     0              3.3698069      7.2989925    
     50500   2.8730968      0.41605097     0              3.2819651      7.8624655    
     51000   2.9224868      0.36855901     0              3.2837396      7.2218485    
     51500   2.931924       0.41150998     0              3.3361042      7.6118124    
     52000   2.7205461      0.46627793     0              3.1800227      8.0393049    
     52500   2.8607041      0.47466035     0              3.3282127      8.1427037    
     53000   2.937396       0.39078557     0              3.3208381      7.5481496    
     53500   2.8358123      0.51312832     0              3.3418511      8.6353078    
     54000   2.9125949      0.51438691     0              3.4197003      8.7537514    
     54500   2.8242074      0.4437257      0              3.2608726      7.9087713    
     55000   3.1033528      0.45843606     0              3.5540305      8.2498391    
     55500   3.0347828      0.40322803     0              3.4304239      7.8188988    
     56000   2.8458364      0.55318006     0              3.3919019      9.0522582    
     56500   2.8502059      0.46797024     0              3.3110506      8.3439228    
     57000   2.7794141      0.46517511     0              3.2376407      8.1416813    
     57500   2.945537       0.44419683     0              3.38237        7.9691296    
     58000   2.9038365      0.36746315     0              3.2640401      7.4933477    
     58500   2.9915275      0.37644437     0              3.3604931      7.7269892    
     59000   2.6904645      0.44450108     0              3.1282394      7.5724822    
     59500   2.603048       0.45376677     0              3.0503072      7.850602     
     60000   2.6249424      0.4541796      0              3.0725596      7.9815108    
     60500   2.6323518      0.35851007     0              2.984281       7.2306629    
     61000   2.4675241      0.36942944     0              2.8307847      7.0144795    
     61500   2.5043287      0.34396895     0              2.8420368      6.5444673    
     62000   2.6809378      0.44906129     0              3.1232968      7.5170759    
     62500   2.5404223      0.43608022     0              2.9701515      7.9494431    
     63000   2.7551531      0.26896201     0              3.0172272      6.0062085    
     63500   2.7688519      0.29540549     0              3.0573353      6.3542629    
     64000   2.463609       0.41354355     0              2.8709935      7.4799336    
     64500   2.7313753      0.32379127     0              3.0483381      6.7768225    
     65000   2.7168577      0.30967707     0              3.0197426      6.3436353    
     65500   2.7332749      0.43421223     0              3.1606539      7.5330292    
     66000   2.8010284      0.44149368     0              3.2355195      8.0965903    
     66500   2.6265392      0.30427208     0              2.924245       6.4354859    
     67000   2.4379541      0.39972403     0              2.8315832      7.2443416    
     67500   2.4100622      0.38772218     0              2.7917592      7.2069494    
     68000   2.4024605      0.30560126     0              2.7020556      6.437278     
     68500   2.4218974      0.37357044     0              2.7894131      6.9420933    
     69000   2.4119573      0.34082708     0              2.7467545      6.3376292    
     69500   2.3655116      0.30654758     0              2.6661454      6.2899381    
     70000   2.3465866      0.25692571     0              2.5976458      5.7264088    
     70500   2.2965179      0.39999313     0              2.6907697      7.1404627    
     71000   2.2592545      0.4580397      0              2.711646       7.3921102    
     71500   2.3674727      0.2607089      0              2.6222629      5.5345981    
     72000   2.4603189      0.27145523     0              2.7256233      6.0124396    
     72500   2.5032285      0.34403565     0              2.8410061      6.8001198    
     73000   2.4173875      0.40661473     0              2.8179587      7.0696867    
     73500   2.370408       0.31870215     0              2.6831841      6.2765923    
     74000   2.4308656      0.3381718      0              2.7629602      6.6873807    
     74500   2.5202146      0.32341948     0              2.8373335      6.489247     
     75000   2.4642487      0.37150742     0              2.8295955      7.0512691    
     75500   2.3994318      0.23528038     0              2.6287136      5.3760937    
     76000   2.213785       0.35468021     0              2.5629308      6.655406     
     76500   2.2437484      0.37567931     0              2.6138183      6.8731909    
     77000   2.1978457      0.36885235     0              2.5612034      6.72897      
     77500   2.3193829      0.30887518     0              2.6224596      6.4188307    
     78000   2.3549321      0.37256833     0              2.7216131      6.824585     
     78500   2.3533977      0.35672477     0              2.7042389      6.6489164    
     79000   2.1003032      0.36467416     0              2.4597266      6.793624     
     79500   2.0879881      0.33897177     0              2.4217399      6.3407601    
     80000   2.0387369      0.29442753     0              2.3280676      5.9558014    
     80500   2.0922217      0.27578488     0              2.3627761      5.6237264    
     81000   1.9653979      0.26320606     0              2.2236904      5.4962965    
     81500   2.0972838      0.27217356     0              2.3642142      5.69646      
     82000   2.1349364      0.24913369     0              2.3787327      5.4295509    
     82500   2.1863916      0.23281661     0              2.4137423      5.2298908    
     83000   2.0583811      0.36078988     0              2.414025       6.4875799    
     83500   2.1080151      0.34654195     0              2.449287       6.3350905    
     84000   2.2186691      0.37126599     0              2.5843884      6.748519     
     84500   2.0232451      0.27892909     0              2.297116       5.4826755    
     85000   1.9405177      0.29349206     0              2.2291585      5.7200042    
     85500   1.9467764      0.26305165     0              2.2049611      5.8238242    
     86000   1.8927834      0.23944636     0              2.1274978      5.0658612    
     86500   1.7772548      0.328952       0              2.1017637      6.1960786    
     87000   1.7719492      0.30323367     0              2.070753       5.7445571    
     87500   1.7199426      0.26049401     0              1.9761368      5.3215921    
     88000   1.8611336      0.25773739     0              2.1142181      5.310309     
     88500   1.9020725      0.24671114     0              2.1440284      5.2853836    
     89000   1.8908397      0.30871877     0              2.1948314      5.9546922    
     89500   1.8832141      0.27777924     0              2.1562853      5.6506906    
     90000   1.9384165      0.2312206      0              2.1647911      5.1010535    
     90500   1.9282474      0.24416249     0              2.1675893      5.4185475    
     91000   1.8040929      0.25549173     0              2.0550744      5.4074006    
     91500   1.7851665      0.21487296     0              1.9955765      4.7118268    
     92000   1.7849458      0.21049174     0              1.9909751      4.7030266    
     92500   1.8381883      0.22970998     0              2.0633028      4.837623     
     93000   1.6744456      0.21737767     0              1.8876372      4.6756116    
     93500   1.6727371      0.1831195      0              1.8516747      4.2471741    
     94000   1.7466064      0.21993296     0              1.9621728      4.780549     
     94500   1.7046431      0.22753753     0              1.927919       5.3523963    
     95000   1.714948       0.1848899      0              1.8955505      4.4548038    
     95500   1.7481301      0.19589368     0              1.9396535      4.3831231    
     96000   1.6641541      0.26705495     0              1.9270487      5.0571155    
     96500   1.5712922      0.20519755     0              1.7725615      4.602485     
     97000   1.5920165      0.21211192     0              1.8001483      4.3611022    
     97500   1.594268       0.17954396     0              1.7698263      4.1285058    
     98000   1.5867118      0.22031058     0              1.8030556      4.7729088    
[...]

Performance: 43042482.382 tau/day, 49817.688 timesteps/s, 19.927 Matom-step/s
99.2% CPU use with 48 MPI tasks x 1 OpenMP threads

MPI task timing breakdown:
Section |  min time  |  avg time  |  max time  |%varavg| %total
---------------------------------------------------------------
Pair    | 0.018624   | 0.0201     | 0.022245   |   0.6 |  2.00
Neigh   | 0.022018   | 0.022994   | 0.026734   |   0.5 |  2.29
Comm    | 0.40715    | 0.48243    | 0.55751    |   7.0 | 48.07
Output  | 0.0022969  | 0.0025279  | 0.0061032  |   1.0 |  0.25
Modify  | 0.21532    | 0.28302    | 0.3552     |   8.4 | 28.20
Other   |            | 0.1926     |            |       | 19.19

Nlocal:        8.33333 ave          10 max           6 min
Histogram: 5 0 6 0 0 12 0 18 0 7
Nghost:        23.2083 ave          29 max          18 min
Histogram: 6 1 10 5 3 4 7 5 6 1
Neighs:        24.6458 ave          32 max          15 min
Histogram: 2 2 3 2 6 11 7 8 4 3

Total # of neighbors = 1183
Ave neighs/atom = 2.9575
Neighbor list builds = 16876
Dangerous builds = 0
Generated 0 of 0 mixed pair_coeff terms from geometric mixing rule
Setting up Verlet run ...
  Unit style    : lj
  Current step  : 50000
  Time step     : 0.01
Per MPI rank memory allocation (min/avg/max) = 3.068 | 3.068 | 3.068 Mbytes
   Step          Temp          E_pair         E_mol          TotEng         Press     
     50000   2.7891642      1.9541477      0              4.736339       42.988682    
     50500   3.0790787      2.1307884      0              5.2021695      45.233684    
     51000   3.4080826      2.0770893      0              5.4766517      44.305366    
     51500   2.9864478      2.0489069      0              5.0278885      43.840323    
     52000   3.0563012      2.2272266      0              5.275887       46.296602    
     52500   2.6023357      2.1319994      0              4.7278292      44.603444    
     53000   3.1320449      1.7582925      0              4.8825073      40.20018     
     53500   2.8470093      1.9533123      0              4.7932041      42.202294    
     54000   2.9910474      1.8681825      0              4.8517524      41.972418    
     54500   2.853684       2.1245766      0              4.9711264      45.016291    
     55000   2.8132803      2.2527431      0              5.0589903      47.157827    
     55500   2.8880731      2.3039323      0              5.1847852      47.629316    
     56000   3.0301799      1.7655455      0              4.78815        40.592272    
     56500   2.9085141      2.1367166      0              5.0379595      45.6623      
     57000   2.6742906      1.8014034      0              4.4690082      40.09217     
     57500   2.860612       1.788361       0              4.6418214      40.653594    
     58000   2.7347308      1.5931687      0              4.3210627      38.090012    
     58500   2.8848721      1.7575408      0              4.6352006      40.08874     
     59000   2.9555052      1.8678304      0              4.8159468      41.182197    
     59500   2.9310317      1.880718       0              4.8044221      41.775068    
     60000   2.8332752      1.8248809      0              4.6510729      41.221748    
     60500   2.5869218      1.8969017      0              4.4773563      41.711151    
     61000   2.5045584      1.8460088      0              4.3443057      40.762497    
     61500   2.7182749      1.6287649      0              4.3402441      38.281872    
     62000   2.6176474      1.5617272      0              4.1728305      37.695597    
     62500   2.6115454      1.8433903      0              4.4484069      40.826856    
     63000   2.4659277      1.71004        0              4.1698029      38.77363     
     63500   2.6219068      1.7152784      0              4.3306305      38.846311    
     64000   2.6327701      1.5193046      0              4.1454928      35.607836    
     64500   2.4978206      1.7949287      0              4.2865047      40.388368    
     65000   2.6686863      1.6126105      0              4.2746251      37.666247    
     65500   2.5457202      1.8449559      0              4.3843118      40.794243    
     66000   2.6481906      1.9461543      0              4.5877245      41.967981    
     66500   2.6790208      1.8708942      0              4.5432175      40.988892    
     67000   2.5973831      1.7223104      0              4.3132         39.9209      
     67500   2.5740934      1.7159731      0              4.2836313      39.272399    
     68000   2.2327027      1.9001295      0              4.1272505      42.430217    
     68500   2.4106507      1.7635619      0              4.168186       39.265309    
     69000   2.2262451      1.809222       0              4.0299016      40.010541    
     69500   2.455947       1.5019233      0              3.9517304      36.296883    
     70000   2.4023513      1.4989988      0              3.8953442      35.459881    
     70500   2.3147952      1.5919601      0              3.9009683      36.649765    
     71000   2.2280381      1.6999597      0              3.9224277      38.395521    
     71500   2.3767475      1.4369128      0              3.8077184      34.499338    
     72000   2.1512875      1.6976275      0              3.8435368      38.378771    
     72500   2.2781513      1.4531983      0              3.7256542      34.931566    
     73000   2.3536032      1.5237033      0              3.8714225      35.466293    
     73500   2.3891503      1.6170156      0              4.000193       37.35033     
     74000   2.3612803      1.5790505      0              3.9344276      37.076656    
     74500   2.2340419      1.5553563      0              3.783813       35.740302    
     75000   2.2043997      1.4976773      0              3.696566       36.103957    
     75500   2.1295369      1.3967375      0              3.5209505      33.706211    
     76000   2.1346789      1.5016547      0              3.6309969      35.588886    
     76500   2.2385147      1.5942094      0              3.8271278      36.847593    
     77000   2.2976881      1.6522587      0              3.9442027      37.474173    
     77500   2.2559815      1.4846594      0              3.735001       35.730161    
     78000   2.2674984      1.2810216      0              3.5428512      32.370524    
     78500   2.0983599      1.4733265      0              3.5664405      34.906673    
     79000   2.1710582      1.373805       0              3.5394356      33.38545     
     79500   2.2514774      1.4546408      0              3.7004895      34.842846    
     80000   2.1115879      1.6845462      0              3.7908551      37.909197    
     80500   2.1744463      1.4489299      0              3.6179401      35.027144    
     81000   2.1927142      1.481767       0              3.6689994      34.691656    
     81500   2.111758       1.3857955      0              3.4922741      33.885213    
     82000   2.0460821      1.5860226      0              3.6269895      36.752517    
     82500   2.1560547      1.3034415      0              3.4541061      32.718926    
     83000   1.9315101      1.354156       0              3.2808374      33.369063    
     83500   2.0478609      1.3170567      0              3.3597979      32.321417    
     84000   2.0421924      1.3033726      0              3.3404595      32.337834    
     84500   2.1241589      1.2781277      0              3.3969762      32.29848     
     85000   2.0016311      1.4902441      0              3.4868711      35.38084     
     85500   2.0688385      1.2543348      0              3.3180012      31.300736    
     86000   2.0283708      1.2615532      0              3.2848531      30.926928    
     86500   1.9140834      1.3187852      0              3.2280834      31.734621    
     87000   2.0348731      1.2199608      0              3.2497468      30.872007    
     87500   1.8866063      1.2851801      0              3.1670699      31.899187    
     88000   1.8549017      1.1573596      0              3.0076241      30.286448    
     88500   1.9655589      1.2196829      0              3.180328       30.623919    
     89000   1.9826383      1.2819848      0              3.2596665      32.337035    
     89500   1.7528317      1.2360366      0              2.9844863      30.66438     
     90000   1.772128       1.1602609      0              2.9279586      29.785049    
     90500   1.7796873      1.1250425      0              2.9002806      29.565441    
     91000   1.7338515      1.3009587      0              3.0304756      31.202748    
     91500   1.7237312      1.096719       0              2.8161409      28.957825    
     92000   1.6902929      1.1740276      0              2.8600947      29.461425    
     92500   1.6441176      1.1772501      0              2.8172574      29.96258     
     93000   1.7267299      1.2156387      0              2.9380518      30.255753    
     93500   1.7995254      1.1775773      0              2.9726038      30.382252    
     94000   1.7426517      1.3434098      0              3.0817049      32.479541    
     94500   1.6960853      1.2225646      0              2.9144096      30.932447    
     95000   1.6842198      1.1091156      0              2.7891248      29.120533    
     95500   1.7422152      0.97530847     0              2.7131681      26.904501    
     96000   1.6410563      1.0325505      0              2.6695042      27.760488    
     96500   1.5868681      1.0777795      0              2.6606804      28.19242     
     97000   1.5928146      0.99981906     0              2.5886517      27.585314    
     97500   1.5697521      0.94668859     0              2.5125163      26.032742    
     98000   1.5705813      0.92388655     0              2.4905415      25.590051    
     98500   1.5574228      1.1540672      0              2.7075964      29.105571    
     99000   1.6125025      1.0324715      0              2.6409428      27.305415    
     99500   1.5418479      1.1315715      0              2.6695648      28.993824    
    100000   1.4718915      0.9938207      0              2.4620325      26.746604    
    100500   1.5196946      0.97382315     0              2.4897185      26.533792    
    101000   1.5034127      0.96478033     0              2.4644345      26.138141    
    101500   1.530413       0.93383473     0              2.4604217      25.475978    
    102000   1.4339141      1.043566       0              2.4738953      27.577975    
    102500   1.6853151      0.94940988     0              2.6305117      26.155268    
    103000   1.6019272      0.99113359     0              2.589056       26.556068    
    103500   1.5186956      1.0181939      0              2.5330928      27.250721    
    104000   1.5012436      0.96062995     0              2.4581204      25.777013    
    104500   1.4702504      0.94029173     0              2.4068665      26.03246     
    105000   1.5019806      0.85275703     0              2.3509827      24.833392    
    105500   1.456844       0.85969373     0              2.3128956      24.354249    
    106000   1.1854199      0.87080424     0              2.0532606      24.25505     
    106500   1.1825395      0.97468497     0              2.1542681      26.356902    
    107000   1.2703067      0.89620606     0              2.163337       25.258576    
    107500   1.384885       0.89951126     0              2.2809341      24.690622    
    108000   1.388335       0.970991       0              2.3558551      26.348847    
    108500   1.3554798      0.8498443      0              2.2019354      24.038667    
    109000   1.377972       0.87784495     0              2.252372       24.642928    
    109500   1.3063728      0.80188306     0              2.1049899      23.449093    
    110000   1.3106651      0.84931542     0              2.1567039      23.784725    
    110500   1.2658304      0.80642061     0              2.0690864      23.820218    
    111000   1.2438411      0.76132664     0              2.0020582      22.548012    
    111500   1.123536       0.7412049      0              1.8619321      21.578309    
    112000   1.226494       0.72537383     0              1.9488016      21.558964    
    112500   1.1943825      0.81154682     0              2.0029434      23.159677    
    113000   1.2004829      0.7627281      0              1.9602098      22.45688     
    113500   1.21823        0.68765923     0              1.9028437      21.527956    
    114000   1.1844322      0.77631771     0              1.9577888      22.638443    
    114500   1.1008318      0.77450101     0              1.8725808      22.694432    
    115000   1.0984327      0.68402393     0              1.7797105      20.941911    
    115500   1.1133002      0.69149806     0              1.802015       20.874863    
    116000   1.0819028      0.63075906     0              1.7099571      19.377685    
    116500   1.036001       0.74772145     0              1.7811324      21.972429    
    117000   0.99579805     0.67813054     0              1.6714391      20.679974    
    117500   1.0197098      0.67397888     0              1.6911394      20.383774    
    118000   0.99693557     0.61917817     0              1.6136214      20.148799    
    118500   1.0361605      0.62316039     0              1.6567305      19.714916    
    119000   0.97161362     0.59174163     0              1.5609262      19.282774    
    119500   0.98424391     0.63972908     0              1.6215124      20.020802    
    120000   0.97788818     0.66109455     0              1.636538       19.995249    
    120500   1.025805       0.66699437     0              1.6902349      20.834284    
    121000   0.92513834     0.64619772     0              1.5690232      19.760177    
    121500   0.93829593     0.58424719     0              1.5201974      18.69303     
    122000   0.89718386     0.57145482     0              1.4663957      18.727924    
    122500   0.86232255     0.59232677     0              1.4524935      18.895215    
    123000   0.819335       0.66426168     0              1.4815483      20.74137     
    123500   0.92931726     0.62661713     0              1.5536111      19.730622    
    124000   0.87839204     0.60912826     0              1.4853243      19.314887    
    124500   0.90518509     0.5531655      0              1.4560876      18.055254    
    125000   0.88516923     0.54085717     0              1.4238135      17.899134    
    125500   0.86835764     0.51067981     0              1.3768666      17.253768    
    126000   0.79374724     0.5506776      0              1.3424405      17.880758    
    126500   0.77258636     0.55296125     0              1.3236161      18.193125    
    127000   0.7596205      0.51368916     0              1.2714106      16.842392    
    127500   0.74804905     0.51471583     0              1.2608948      16.925253    
    128000   0.76599987     0.4533868      0              1.2174717      16.127932    
    128500   0.74225886     0.43202756     0              1.1724308      15.628057    
    129000   0.68844463     0.45796492     0              1.1446884      15.980453    
    129500   0.71252835     0.46683922     0              1.1775862      16.151721    
    130000   0.76435384     0.43742491     0              1.1998679      15.585674    
    130500   0.71755621     0.44528089     0              1.1610432      16.033125    
    131000   0.68197295     0.41902849     0              1.0992965      15.386155    
    131500   0.64786189     0.43392172     0              1.080164       15.81194     
    132000   0.59653379     0.41761045     0              1.0126529      14.824165    
    132500   0.60885249     0.39036915     0              0.99769951     14.556226    
    133000   0.57787393     0.3871901      0              0.96361935     14.186322    
    133500   0.61191935     0.30612666     0              0.91651621     12.723065    
    134000   0.54903532     0.36297282     0              0.91063555     13.990327    
    134500   0.53110682     0.36031284     0              0.89009189     13.680218    
    135000   0.53112786     0.33403881     0              0.86383886     13.068152    
    135500   0.54784611     0.30497219     0              0.85144869     12.381482    
    136000   0.54005609     0.29828588     0              0.83699183     12.044001    
    136500   0.50085233     0.31752812     0              0.81712832     12.65026     
    137000   0.48255749     0.30072701     0              0.78207811     12.347666    
    137500   0.49186689     0.27629049     0              0.76692772     11.465819    
    138000   0.48214971     0.26409459     0              0.74503893     11.337854    
    138500   0.44643924     0.28054036     0              0.7258635      11.470611    
    139000   0.42296515     0.27716057     0              0.6990683      11.38152     
    139500   0.43391708     0.23842525     0              0.67125753     10.656049    
    140000   0.40717771     0.24693985     0              0.65309961     10.770298    
    140500   0.37002619     0.26080713     0              0.62990826     11.068521    
    141000   0.37602437     0.21969378     0              0.59477808     10.159828    
    141500   0.36859131     0.20244723     0              0.57011706     9.4795292    
    142000   0.3339231      0.19387073     0              0.52695902     9.1251332    
    142500   0.30275702     0.18853507     0              0.4905352      9.0752172    
    143000   0.29064635     0.17273096     0              0.4626507      8.4800226    
    143500   0.2811696      0.15809582     0              0.4385625      8.1288109    
    144000   0.27075778     0.15530347     0              0.42538435     8.1022368    
    144500   0.28420454     0.1329143      0              0.41640833     7.3930795    
    145000   0.24594345     0.14284888     0              0.38817747     7.5826176    
    145500   0.24736282     0.14514589     0              0.39189031     7.6299338    
    146000   0.20800214     0.11502351     0              0.32250565     6.7104909    
    146500   0.21754071     0.10348922     0              0.32048608     6.2672968    
    147000   0.18534063     0.087107173    0              0.27198445     5.5511294    
    147500   0.17132871     0.091512297    0              0.26241269     5.8347723    
    148000   0.16945956     0.0906996      0              0.25973552     5.7425574    
    148500   0.13524979     0.082082249    0              0.21699392     5.2679814    
    149000   0.14137068     0.06201457     0              0.20303182     4.6118279    
    149500   0.11487195     0.059812454    0              0.17439722     4.4200076    
    150000   0.099675898    0.048155384    0              0.14758209     3.9229263    
Loop time of 1.81305 on 48 procs for 100000 steps with 400 atoms

Performance: 47654609.609 tau/day, 55155.798 timesteps/s, 22.062 Matom-step/s
99.4% CPU use with 48 MPI tasks x 1 OpenMP threads

MPI task timing breakdown:
Section |  min time  |  avg time  |  max time  |%varavg| %total
---------------------------------------------------------------
Pair    | 0.032247   | 0.038657   | 0.045523   |   1.7 |  2.13
Neigh   | 0.027051   | 0.030534   | 0.034772   |   0.9 |  1.68
Comm    | 0.70926    | 0.85348    | 0.98497    |  10.0 | 47.07
Output  | 0.029877   | 0.029942   | 0.030542   |   0.1 |  1.65
Modify  | 0.38362    | 0.4987     | 0.6313     |  11.9 | 27.51
Other   |            | 0.3617     |            |       | 19.95

Nlocal:        8.33333 ave          11 max           6 min
Histogram: 6 0 9 0 6 0 18 0 8 1
Nghost:        23.3333 ave          30 max          17 min
Histogram: 4 3 6 8 5 1 10 6 0 5
Neighs:        24.8125 ave          32 max          16 min
Histogram: 1 7 2 5 2 8 9 5 4 5

Total # of neighbors = 1191
Ave neighs/atom = 2.9775
Neighbor list builds = 23236
Dangerous builds = 0
Total wall time: 0:00:02
